/*--------------------------------*- C++ -*----------------------------------*\
| =========                 |                                                 |
| \\      /  F ield         | OpenFOAM: The Open Source CFD Toolbox           |
|  \\    /   O peration     | Version:  v2012                                 |
|   \\  /    A nd           | Website:  www.openfoam.com                      |
|    \\/     M anipulation  |                                                 |
\*---------------------------------------------------------------------------*/
FoamFile
{
    version     2.0;
    format      ascii;
    class       volScalarField;
    location    "0.2";
    object      p;
}
// * * * * * * * * * * * * * * * * * * * * * * * * * * * * * * * * * * * * * //

dimensions      [1 -1 -2 0 0 0 0];


internalField   nonuniform List<scalar> 
500
(
1
1
1
1
1
1
1
1
1
1
1
1
1
1
1
1
1
1
1
1
1
1
1
1
1
1
1
1
1
1
1
1
1
1
1
1
1
1
1
1
1
1
1
1
1
1
1
1
1
1
1
1
1
1
1
1
1
1
1
1
1
1
1
1
1
1
1
1
1
1
1
1
1
1
1
1
1
1
1
1
1
1
1
1
1
1
1
1
1
1
1
0.9999999999
0.9999999999
0.9999999997
0.9999999995
0.9999999989
0.9999999978
0.9999999956
0.9999999913
0.999999983
0.9999999671
0.9999999371
0.999999881
0.9999997774
0.9999995881
0.999999247
0.9999986396
0.999997572
0.9999957203
0.9999925521
0.9999872066
0.9999783166
0.9999637501
0.9999402457
0.9999029159
0.9998445938
0.9997550098
0.9996198096
0.9994194568
0.9991281165
0.9987126771
0.9981321256
0.9973375382
0.9962729506
0.9948773136
0.9930876128
0.9908430268
0.9880897666
0.9847860085
0.9809061878
0.9764439059
0.9714128597
0.9658455325
0.9597898151
0.9533041574
0.9464521432
0.9392974237
0.9318997371
0.9243123485
0.9165808751
0.9087426938
0.9008250604
0.8928459369
0.8848260493
0.8767756274
0.8687032881
0.8606176315
0.8525324677
0.8444619637
0.8364148181
0.8283963912
0.8204113017
0.8124634529
0.8045561558
0.796692214
0.7888739951
0.7811034834
0.7733823251
0.7657118786
0.7580932748
0.7505275021
0.74301551
0.7355582564
0.7281564893
0.7208106262
0.7135210258
0.7062879585
0.6991116162
0.6919921243
0.6849295485
0.6779239021
0.6709751517
0.664083222
0.6572480002
0.6504693397
0.6437470633
0.6370809658
0.6304708164
0.6239163612
0.6174173252
0.6109734139
0.6045843161
0.5982497049
0.5919692408
0.5857425729
0.5795693417
0.5734491808
0.5673817192
0.5613665838
0.555403401
0.5494917986
0.5436314073
0.537821862
0.5320628028
0.5263538769
0.5206947415
0.515085067
0.5095245412
0.5040128729
0.4985497992
0.4931351001
0.4877686259
0.4824503467
0.4771804019
0.4719591778
0.4667873152
0.4616649717
0.4565919311
0.4515681557
0.4465933129
0.4416680284
0.4367924499
0.4319647192
0.4271876958
0.4224626299
0.4177819247
0.4131553519
0.4085854434
0.4040541123
0.3995794821
0.3951650114
0.3907901411
0.3864690124
0.3822131597
0.3780030026
0.3738450292
0.3697496486
0.3657103889
0.3617230121
0.3577938722
0.3539220531
0.3501076389
0.3463501358
0.3426494776
0.3390067998
0.3354237605
0.3319027939
0.3284473436
0.3250661768
0.3217766385
0.3186049038
0.315589505
0.3127833103
0.3102529642
0.3080705212
0.3062976178
0.3049627898
0.3040449061
0.3034735182
0.3031528879
0.3029913131
0.3029205223
0.3028963199
0.3028922836
0.3028963563
0.3029132174
0.3029474332
0.3029872907
0.3030158617
0.3030393971
0.30306015
0.3030782208
0.3030941869
0.3031085652
0.3031217022
0.3031330591
0.3031422983
0.3031496408
0.3031553825
0.3031602908
0.3031647485
0.3031689314
0.3031730664
0.30317681
0.3031798602
0.3031811724
0.3031797297
0.3031801165
0.3031811058
0.3031829418
0.3031856143
0.3031872202
0.3031855924
0.3031863596
0.3031889572
0.3031882058
0.3031889828
0.3031909604
0.3031895849
0.3031903765
0.3031923661
0.3031907265
0.3031914324
0.3031932804
0.3031910361
0.3031917455
0.3031935377
0.3031910244
0.3031916917
0.303193232
0.3031911422
0.3031914955
0.3031922511
0.3031914676
0.3031915688
0.3031913178
0.3031910996
0.3031907775
0.3031906442
0.3031902903
0.3031901186
0.3031897115
0.303189443
0.3031890417
0.3031888481
0.3031884631
0.3031882931
0.3031878311
0.3031876531
0.303189077
0.3031844503
0.3031912068
0.3031802848
0.3031982882
0.3031708691
0.3032165168
0.3031469202
0.3032523722
0.3031024028
0.3033163785
0.3030267389
0.3034134413
0.3029170971
0.3035351663
0.302790601
0.3036521416
0.3026933941
0.3037167165
0.3026899722
0.3036787594
0.3028307296
0.3034948823
0.3031269163
0.3031730725
0.3030500794
0.3032050492
0.3032052321
0.3031971752
0.3031955628
0.3031947747
0.3031942909
0.3031940127
0.3031938669
0.3031938065
0.3031937944
0.3031937984
0.3031938001
0.3031937949
0.3031937843
0.3031937829
0.3031937877
0.3031937899
0.3031937889
0.3031937447
0.3031936956
0.3031936473
0.3031936172
0.3031935945
0.303193585
0.30319359
0.3031936107
0.3031936501
0.3031937119
0.3031937386
0.3031937256
0.30319371
0.303193715
0.3031936778
0.3031936772
0.3031936464
0.3031936308
0.3031936101
0.3031935912
0.3031935656
0.3031935063
0.3031934062
0.3031932816
0.3031931485
0.3031930185
0.303192894
0.303192775
0.3031926765
0.3031926126
0.3031925406
0.3031924032
0.3031922114
0.3031920119
0.3031918607
0.3031917805
0.303191653
0.3031914561
0.3031912377
0.3031910812
0.3031910658
0.3031911085
0.3031910246
0.3031908303
0.3031906749
0.3031906091
0.3031906945
0.3031905851
0.3031895541
0.3031894819
0.3031887598
0.3031865256
0.3031809031
0.303164771
0.3031279817
0.3030327114
0.302791749
0.3021879092
0.3006523112
0.2968192272
0.2873713181
0.2650622261
0.2177374854
0.1490145214
0.1128966753
0.1024378144
0.1004153594
0.1000721552
0.1000125869
0.1000021973
0.1000003837
0.100000067
0.1000000117
0.100000002
0.1000000004
0.1000000001
0.1
0.1
0.1
0.1
0.1
0.1
0.1
0.1
0.1
0.1
0.1
0.1
0.1
0.1
0.1
0.1
0.1
0.1
0.1
0.1
0.1
0.1
0.1
0.1
0.1
0.1
0.1
0.1
0.1
0.1
0.1
0.1
0.1
0.1
0.1
0.1
0.1
0.1
0.1
0.1
0.1
0.1
0.1
0.1
0.1
0.1
0.1
0.1
0.1
0.1
0.1
0.1
0.1
0.1
0.1
0.1
0.1
0.1
0.1
0.1
0.1
)
;

boundaryField
{
    sides
    {
        type            zeroGradient;
    }
    empty
    {
        type            empty;
    }
}


// ************************************************************************* //
