/*--------------------------------*- C++ -*----------------------------------*\
| =========                 |                                                 |
| \\      /  F ield         | OpenFOAM: The Open Source CFD Toolbox           |
|  \\    /   O peration     | Version:  v2012                                 |
|   \\  /    A nd           | Website:  www.openfoam.com                      |
|    \\/     M anipulation  |                                                 |
\*---------------------------------------------------------------------------*/
FoamFile
{
    version     2.0;
    format      ascii;
    class       volScalarField;
    location    "0.2";
    object      rho;
}
// * * * * * * * * * * * * * * * * * * * * * * * * * * * * * * * * * * * * * //

dimensions      [1 -3 0 0 0 0 0];


internalField   nonuniform List<scalar> 
500
(
0.9989740407
0.9989740407
0.9989740407
0.9989740407
0.9989740407
0.9989740407
0.9989740407
0.9989740407
0.9989740407
0.9989740407
0.9989740407
0.9989740407
0.9989740407
0.9989740407
0.9989740407
0.9989740407
0.9989740407
0.9989740407
0.9989740407
0.9989740407
0.9989740407
0.9989740407
0.9989740407
0.9989740407
0.9989740407
0.9989740407
0.9989740407
0.9989740407
0.9989740407
0.9989740407
0.9989740407
0.9989740407
0.9989740407
0.9989740407
0.9989740407
0.9989740407
0.9989740407
0.9989740407
0.9989740407
0.9989740407
0.9989740407
0.9989740407
0.9989740407
0.9989740407
0.9989740407
0.9989740407
0.9989740407
0.9989740407
0.9989740407
0.9989740407
0.9989740407
0.9989740407
0.9989740407
0.9989740407
0.9989740407
0.9989740407
0.9989740407
0.9989740407
0.9989740407
0.9989740407
0.9989740407
0.9989740407
0.9989740407
0.9989740407
0.9989740407
0.9989740407
0.9989740407
0.9989740407
0.9989740407
0.9989740407
0.9989740407
0.9989740407
0.9989740407
0.9989740407
0.9989740407
0.9989740407
0.9989740407
0.9989740407
0.9989740407
0.9989740407
0.9989740407
0.9989740407
0.9989740407
0.9989740407
0.9989740407
0.9989740407
0.9989740407
0.9989740407
0.9989740407
0.9989740407
0.9989740407
0.9989740406
0.9989740406
0.9989740405
0.9989740403
0.9989740399
0.9989740391
0.9989740375
0.9989740345
0.9989740285
0.9989740172
0.9989739958
0.9989739557
0.9989738816
0.9989737465
0.9989735028
0.998973069
0.9989723066
0.9989709842
0.9989687216
0.9989649042
0.9989585557
0.9989481537
0.9989313695
0.9989047133
0.9988630676
0.9987990995
0.9987025587
0.9985594927
0.9983514478
0.9980547646
0.9976401245
0.997072528
0.9963118947
0.9953144302
0.9940348154
0.9924291332
0.9904582806
0.9880914579
0.9853092196
0.9821055647
0.9784886537
0.9744799639
0.9701119963
0.9654249382
0.9604628904
0.9552703042
0.9498891403
0.9443569985
0.9387062117
0.93296315
0.9271474931
0.9212719135
0.9153515898
0.9093935997
0.9034038015
0.8973879771
0.8913562349
0.8853192497
0.8792836285
0.8732531353
0.8672311926
0.8612207438
0.8552243169
0.8492440877
0.8432819256
0.8373394282
0.8314179521
0.825518647
0.8196425004
0.813790416
0.8079633071
0.8021620509
0.7963873216
0.7906396086
0.7849193543
0.7792269403
0.77356269
0.7679268776
0.7623197335
0.7567414488
0.7511921796
0.7456720505
0.7401811571
0.7347195692
0.7292873325
0.7238844708
0.7185109873
0.7131668662
0.7078520746
0.7025665631
0.697310268
0.6920831121
0.6868850066
0.6817158525
0.6765755423
0.6714639616
0.6663809908
0.6613265072
0.6563003859
0.6513025021
0.6463327318
0.641390953
0.636477047
0.6315908996
0.6267324039
0.6219014636
0.6170979956
0.6123219352
0.6075732417
0.6028519127
0.5981580077
0.5934916957
0.5888532941
0.5842433333
0.579662578
0.5751113274
0.5705897026
0.5660977779
0.5616355002
0.5572038256
0.5528028307
0.5484308805
0.5440920193
0.5397860404
0.5355058236
0.5312647009
0.5270597424
0.5228754085
0.5187354196
0.5146348176
0.5105551973
0.5065193185
0.5025287752
0.4985653852
0.4946436653
0.4907674489
0.4869302403
0.4831321285
0.4793778721
0.4756663998
0.47199865
0.4683743713
0.4647940942
0.4612594135
0.4577719293
0.4543347159
0.4509508159
0.447629997
0.4443897895
0.441256748
0.4382700734
0.435483635
0.4329645183
0.4307864113
0.4290136199
0.4276764686
0.4267536368
0.4261785665
0.4258557264
0.4256927703
0.4256195987
0.4255949595
0.4255898688
0.4255935699
0.4256099536
0.4256436817
0.4256831335
0.4257109831
0.4257340908
0.4257547505
0.4257723428
0.4257873184
0.4258006627
0.4258131335
0.4258242956
0.4258332604
0.4258396506
0.4258441404
0.4258480729
0.4258518742
0.4258553876
0.4258588288
0.425861605
0.4258639215
0.4258638303
0.4258614277
0.4258610723
0.4258611655
0.4258620022
0.4258637211
0.4258638
0.4258608651
0.4258605385
0.4258619216
0.4258599061
0.4258594966
0.4258600742
0.4258572834
0.4258568286
0.4258572703
0.4258542484
0.4258538138
0.4258541895
0.4258504264
0.425849831
0.4258497511
0.425845286
0.4258443338
0.4258437981
0.4258398276
0.4258386155
0.4258376476
0.4258347628
0.4258327318
0.4258300249
0.4258271085
0.4258238313
0.4258205973
0.4258169517
0.4258134107
0.4258094913
0.4258056257
0.4258014434
0.4257973229
0.4257927066
0.4257880581
0.4257826814
0.4257776881
0.4257748472
0.425765532
0.4257686508
0.4257457878
0.4257513171
0.4256859709
0.4256870481
0.4255040308
0.4254713481
0.4250179038
0.4248533067
0.4238310338
0.4232959621
0.4212031747
0.4198177827
0.4159397222
0.4129178565
0.4064472454
0.4007961875
0.3911448139
0.3820494022
0.369290537
0.3566714351
0.3418500752
0.3267345097
0.3115257036
0.2988788593
0.2892926956
0.282171051
0.276965148
0.2732163061
0.2705602418
0.2687108455
0.2674468271
0.2665999615
0.2660447197
0.2656892562
0.2654677507
0.265334045
0.2652564836
0.2652138588
0.2651922587
0.2651827682
0.2651797344
0.2651795175
0.2651805462
0.2651833476
0.2651877962
0.2651924317
0.2651953524
0.265196988
0.2651977618
0.2651980228
0.2651980658
0.2651979265
0.2651974896
0.2651966939
0.2651955084
0.2651938678
0.2651918528
0.2651894625
0.2651868182
0.265184116
0.2651816921
0.2651795084
0.265177507
0.2651756609
0.2651739628
0.2651724047
0.2651709849
0.2651697035
0.2651685601
0.2651675559
0.2651666632
0.2651658405
0.2651650612
0.2651643425
0.2651637019
0.2651631423
0.2651626747
0.2651622217
0.2651617784
0.2651613795
0.2651610324
0.2651608286
0.2651606841
0.265160466
0.2651602456
0.2651600584
0.2651599162
0.2651598693
0.2651597881
0.2651590124
0.2651589178
0.2651583992
0.2651569058
0.2651533072
0.265142876
0.2651192408
0.2650579207
0.2649026506
0.2645140008
0.2635244031
0.2610507865
0.2549307752
0.240348787
0.2085093485
0.1601262471
0.1346538037
0.1269325081
0.1252425207
0.1249363406
0.1248830316
0.124873731
0.1248721075
0.124871824
0.1248717745
0.1248717659
0.1248717644
0.1248717641
0.124871764
0.124871764
0.124871764
0.124871764
0.124871764
0.124871764
0.124871764
0.124871764
0.124871764
0.124871764
0.124871764
0.124871764
0.124871764
0.124871764
0.124871764
0.124871764
0.124871764
0.124871764
0.124871764
0.124871764
0.124871764
0.124871764
0.124871764
0.124871764
0.124871764
0.124871764
0.124871764
0.124871764
0.124871764
0.124871764
0.124871764
0.124871764
0.124871764
0.124871764
0.124871764
0.124871764
0.124871764
0.124871764
0.124871764
0.124871764
0.124871764
0.124871764
0.124871764
0.124871764
0.124871764
0.124871764
0.124871764
0.124871764
0.124871764
0.124871764
0.124871764
0.124871764
0.124871764
0.124871764
0.124871764
0.124871764
0.124871764
0.124871764
0.124871764
0.124871764
0.124871764
)
;

boundaryField
{
    sides
    {
        type            calculated;
        value           nonuniform List<scalar> 2(0.124871764 0.9989740407);
    }
    empty
    {
        type            empty;
    }
}


// ************************************************************************* //
