/*--------------------------------*- C++ -*----------------------------------*\
| =========                 |                                                 |
| \\      /  F ield         | OpenFOAM: The Open Source CFD Toolbox           |
|  \\    /   O peration     | Version:  v2012                                 |
|   \\  /    A nd           | Website:  www.openfoam.com                      |
|    \\/     M anipulation  |                                                 |
\*---------------------------------------------------------------------------*/
FoamFile
{
    version     2.0;
    format      ascii;
    class       volScalarField;
    location    "0.2";
    object      rho1;
}
// * * * * * * * * * * * * * * * * * * * * * * * * * * * * * * * * * * * * * //

dimensions      [1 -3 0 0 0 0 0];


internalField   nonuniform List<scalar> 
500
(
1033.041348
1033.041348
1033.041348
1033.041348
1033.041348
1033.041348
1033.041348
1033.041348
1033.041348
1033.041348
1033.041348
1033.041348
1033.041348
1033.041348
1033.041348
1033.041348
1033.041348
1033.041348
1033.041348
1033.041348
1033.041348
1033.041348
1033.041348
1033.041348
1033.041348
1033.041348
1033.041348
1033.041348
1033.041348
1033.041348
1033.041348
1033.041348
1033.041348
1033.041348
1033.041348
1033.041348
1033.041348
1033.041348
1033.041348
1033.041348
1033.041348
1033.041348
1033.041348
1033.041348
1033.041348
1033.041348
1033.041348
1033.041348
1033.041348
1033.041348
1033.041348
1033.041348
1033.041348
1033.041348
1033.041348
1033.041348
1033.041348
1033.041348
1033.041348
1033.041348
1033.041348
1033.041348
1033.041348
1033.041348
1033.041348
1033.041348
1033.041348
1033.041348
1033.041348
1033.041348
1033.041348
1033.041348
1033.041348
1033.041348
1033.041348
1033.041348
1033.041348
1033.041348
1033.041348
1033.041348
1033.041348
1033.041348
1033.041348
1033.041348
1033.041348
1033.041348
1033.041348
1033.041348
1033.041348
1033.041348
1033.041348
1033.041348
1033.041348
1033.041348
1033.041348
1033.041348
1033.041348
1033.041348
1033.041348
1033.041348
1033.041348
1033.041348
1033.041348
1033.041348
1033.041348
1033.041348
1033.041348
1033.041348
1033.041348
1033.041348
1033.041347
1033.041347
1033.041347
1033.041346
1033.041345
1033.041343
1033.041341
1033.041337
1033.041331
1033.041322
1033.04131
1033.041293
1033.041269
1033.041238
1033.041196
1033.041143
1033.041077
1033.040995
1033.040897
1033.040782
1033.04065
1033.0405
1033.040334
1033.040153
1033.039959
1033.039754
1033.039539
1033.039316
1033.039087
1033.038853
1033.038616
1033.038375
1033.038132
1033.037887
1033.03764
1033.037392
1033.037143
1033.036893
1033.036644
1033.036394
1033.036144
1033.035895
1033.035646
1033.035398
1033.03515
1033.034904
1033.034658
1033.034413
1033.034168
1033.033925
1033.033683
1033.033442
1033.033202
1033.032963
1033.032725
1033.032488
1033.032252
1033.032018
1033.031785
1033.031553
1033.031322
1033.031092
1033.030864
1033.030636
1033.03041
1033.030185
1033.029962
1033.029739
1033.029518
1033.029298
1033.029079
1033.028862
1033.028645
1033.02843
1033.028216
1033.028004
1033.027792
1033.027582
1033.027372
1033.027164
1033.026958
1033.026752
1033.026547
1033.026344
1033.026142
1033.025941
1033.025741
1033.025542
1033.025344
1033.025148
1033.024952
1033.024758
1033.024565
1033.024373
1033.024182
1033.023992
1033.023804
1033.023617
1033.023431
1033.023246
1033.023063
1033.022881
1033.0227
1033.02252
1033.022342
1033.022165
1033.021989
1033.021815
1033.021642
1033.021471
1033.021301
1033.021132
1033.020965
1033.0208
1033.020636
1033.020473
1033.020313
1033.020154
1033.019997
1033.019842
1033.019688
1033.019536
1033.019386
1033.019238
1033.019092
1033.018947
1033.018805
1033.018665
1033.018528
1033.018393
1033.018264
1033.01814
1033.018025
1033.017921
1033.01783
1033.017757
1033.017702
1033.017663
1033.01764
1033.017626
1033.01762
1033.017617
1033.017615
1033.017615
1033.017615
1033.017616
1033.017617
1033.017619
1033.01762
1033.017621
1033.017622
1033.017623
1033.017623
1033.017624
1033.017625
1033.017625
1033.017625
1033.017626
1033.017626
1033.017626
1033.017626
1033.017626
1033.017626
1033.017627
1033.017627
1033.017627
1033.017627
1033.017626
1033.017627
1033.017627
1033.017627
1033.017627
1033.017626
1033.017626
1033.017627
1033.017626
1033.017626
1033.017626
1033.017626
1033.017626
1033.017626
1033.017626
1033.017626
1033.017626
1033.017626
1033.017626
1033.017626
1033.017626
1033.017626
1033.017626
1033.017626
1033.017626
1033.017626
1033.017625
1033.017625
1033.017625
1033.017625
1033.017625
1033.017625
1033.017625
1033.017625
1033.017624
1033.017624
1033.017624
1033.017624
1033.017624
1033.017623
1033.017623
1033.017623
1033.017623
1033.017623
1033.017623
1033.017622
1033.017622
1033.017619
1033.017619
1033.017612
1033.01761
1033.017592
1033.017585
1033.017542
1033.01752
1033.017434
1033.017376
1033.017216
1033.017091
1033.016823
1033.016589
1033.01619
1033.015813
1033.015285
1033.014763
1033.014149
1033.013524
1033.012894
1033.012371
1033.011974
1033.011679
1033.011464
1033.011308
1033.011199
1033.011122
1033.01107
1033.011035
1033.011012
1033.010997
1033.010988
1033.010982
1033.010979
1033.010977
1033.010976
1033.010976
1033.010976
1033.010976
1033.010976
1033.010976
1033.010976
1033.010976
1033.010977
1033.010977
1033.010977
1033.010977
1033.010977
1033.010977
1033.010977
1033.010977
1033.010977
1033.010976
1033.010976
1033.010976
1033.010976
1033.010976
1033.010976
1033.010976
1033.010976
1033.010976
1033.010976
1033.010976
1033.010975
1033.010975
1033.010975
1033.010975
1033.010975
1033.010975
1033.010975
1033.010975
1033.010975
1033.010975
1033.010975
1033.010975
1033.010975
1033.010975
1033.010975
1033.010975
1033.010975
1033.010975
1033.010975
1033.010975
1033.010975
1033.010975
1033.010975
1033.010975
1033.010975
1033.010975
1033.010975
1033.010975
1033.010974
1033.010973
1033.010971
1033.010964
1033.010948
1033.010907
1033.010805
1033.010552
1033.009948
1033.00863
1033.006628
1033.005573
1033.005254
1033.005184
1033.005171
1033.005169
1033.005169
1033.005168
1033.005168
1033.005168
1033.005168
1033.005168
1033.005168
1033.005168
1033.005168
1033.005168
1033.005168
1033.005168
1033.005168
1033.005168
1033.005168
1033.005168
1033.005168
1033.005168
1033.005168
1033.005168
1033.005168
1033.005168
1033.005168
1033.005168
1033.005168
1033.005168
1033.005168
1033.005168
1033.005168
1033.005168
1033.005168
1033.005168
1033.005168
1033.005168
1033.005168
1033.005168
1033.005168
1033.005168
1033.005168
1033.005168
1033.005168
1033.005168
1033.005168
1033.005168
1033.005168
1033.005168
1033.005168
1033.005168
1033.005168
1033.005168
1033.005168
1033.005168
1033.005168
1033.005168
1033.005168
1033.005168
1033.005168
1033.005168
1033.005168
1033.005168
1033.005168
1033.005168
1033.005168
1033.005168
1033.005168
1033.005168
1033.005168
1033.005168
)
;

boundaryField
{
    sides
    {
        type            calculated;
        value           nonuniform List<scalar> 2(1033.005168 1033.041348);
    }
    empty
    {
        type            empty;
    }
}


// ************************************************************************* //
