/*--------------------------------*- C++ -*----------------------------------*\
| =========                 |                                                 |
| \\      /  F ield         | OpenFOAM: The Open Source CFD Toolbox           |
|  \\    /   O peration     | Version:  v2012                                 |
|   \\  /    A nd           | Website:  www.openfoam.com                      |
|    \\/     M anipulation  |                                                 |
\*---------------------------------------------------------------------------*/
FoamFile
{
    version     2.0;
    format      ascii;
    class       volScalarField;
    location    "0.2";
    object      T;
}
// * * * * * * * * * * * * * * * * * * * * * * * * * * * * * * * * * * * * * //

dimensions      [0 0 0 1 0 0 0];


internalField   nonuniform List<scalar> 
500
(
0.003487899
0.003487899
0.003487899
0.003487899
0.003487899
0.003487899
0.003487899
0.003487899
0.003487899
0.003487899
0.003487899
0.003487899
0.003487899
0.003487899
0.003487899
0.003487899
0.003487899
0.003487899
0.003487899
0.003487899
0.003487899
0.003487899
0.003487899
0.003487899
0.003487899
0.003487899
0.003487899
0.003487899
0.003487899
0.003487899
0.003487899
0.003487899
0.003487899
0.003487899
0.003487899
0.003487899
0.003487899
0.003487899
0.003487899
0.003487899
0.003487899
0.003487899
0.003487899
0.003487899
0.003487899
0.003487899
0.003487899
0.003487899
0.003487899
0.003487899
0.003487899
0.003487899
0.003487899
0.003487899
0.003487899
0.003487899
0.003487899
0.003487899
0.003487899
0.003487899
0.003487899
0.003487899
0.003487899
0.003487899
0.003487899
0.003487899
0.003487899
0.003487899
0.003487899
0.003487899
0.003487899
0.003487899
0.003487899
0.003487899
0.003487899
0.003487899
0.003487899
0.003487899
0.003487899
0.003487899
0.003487899
0.003487899
0.003487899
0.003487899
0.003487899
0.003487899
0.003487899
0.003487899
0.003487899
0.003487899
0.003487899
0.003487899
0.003487899
0.003487899
0.003487898999
0.003487898999
0.003487898998
0.003487898996
0.003487898991
0.003487898983
0.003487898967
0.003487898938
0.003487898882
0.003487898779
0.003487898591
0.003487898251
0.003487897647
0.003487896586
0.003487894745
0.003487891594
0.003487886278
0.003487877436
0.003487862947
0.003487839566
0.003487802429
0.003487744402
0.00348765526
0.003487520706
0.00348732127
0.003487031189
0.003486617403
0.003486038902
0.003485246649
0.003484184361
0.003482790333
0.003481000394
0.003478751895
0.003475988392
0.003472664505
0.003468750243
0.003464234087
0.003459124216
0.003453447551
0.003447246706
0.00344057538
0.00343349305
0.003426059942
0.003418333018
0.003410363372
0.003402195006
0.003393864859
0.003385398008
0.003376811349
0.003368123929
0.00335934555
0.003350484822
0.003341551015
0.003332558058
0.003323519941
0.003314445135
0.003305340065
0.003296209809
0.003287058668
0.003277890371
0.003268708136
0.003259514754
0.003250312637
0.003241103861
0.003231890217
0.003222673276
0.003213454414
0.003204234887
0.003195016208
0.003185799869
0.003176586723
0.003167377597
0.003158173217
0.00314897423
0.003139781215
0.003130594686
0.003121415105
0.003112242883
0.003103078385
0.003093921936
0.00308477382
0.003075634289
0.003066503559
0.003057381815
0.003048269215
0.003039165888
0.003030071936
0.00302098744
0.003011912455
0.00300284702
0.002993791153
0.002984744859
0.00297570813
0.002966680946
0.002957663283
0.002948655112
0.002939656402
0.002930667124
0.002921687251
0.002912716759
0.002903755635
0.002894803876
0.002885861496
0.002876928536
0.002868005069
0.002859091209
0.002850187137
0.002841293151
0.002832409743
0.002823537714
0.002814678357
0.002805833428
0.002797004119
0.002788190262
0.002779393012
0.002770612364
0.002761849291
0.002753106221
0.002744381479
0.002735674881
0.002726997581
0.002718338596
0.00270969572
0.002701103016
0.002692522973
0.002683955927
0.002675453595
0.002666975343
0.002658500625
0.002650103308
0.002641747044
0.002633402613
0.00262512582
0.002616909201
0.002608725135
0.002600596767
0.002592526792
0.002584514264
0.002576560488
0.002568665639
0.002560833074
0.002553070272
0.002545382704
0.002537784147
0.002530292362
0.002522949408
0.00251581788
0.002508989472
0.002502590753
0.002496788386
0.002491760237
0.00248765782
0.002484560634
0.002482439106
0.00248111731
0.002480374864
0.002480001857
0.002479848688
0.002479794111
0.002479790728
0.002479802506
0.002479845083
0.00247992867
0.002480025076
0.00248009668
0.002480154688
0.002480204177
0.002480249582
0.002480293003
0.002480332929
0.002480367784
0.002480395694
0.002480419075
0.002480441932
0.002480462759
0.002480480013
0.002480494344
0.002480508104
0.002480521892
0.002480536351
0.002480547814
0.002480559082
0.002480561271
0.002480566507
0.002480574059
0.002480584207
0.00248059606
0.002480608739
0.002480612517
0.002480620696
0.002480633893
0.002480639485
0.002480648228
0.002480661044
0.002480666046
0.002480675173
0.002480688878
0.002480693066
0.002480701374
0.002480714305
0.002480717864
0.002480727136
0.002480742266
0.002480747713
0.00248075872
0.002480774443
0.002480780474
0.002480790426
0.002480802247
0.002480812643
0.002480825303
0.00248083902
0.002480854225
0.002480870682
0.002480888433
0.002480906778
0.002480926003
0.002480945508
0.002480965834
0.002480986918
0.002481009343
0.00248103309
0.002481058785
0.002481086335
0.002481113976
0.002481142183
0.002481158604
0.002481195721
0.002481239578
0.002481354693
0.00248151117
0.002481878525
0.002482376123
0.002483430387
0.002484850459
0.002487568007
0.002491186845
0.00249751896
0.002505822206
0.002519221109
0.002536472136
0.002562304785
0.002594877509
0.002640360442
0.00269636425
0.002769574139
0.002857260696
0.002964839215
0.003089633213
0.003233059679
0.003389523271
0.003534755147
0.003651886962
0.003743956534
0.003814308552
0.0038666352
0.003904587362
0.003931456988
0.003950036106
0.003962582766
0.003970852614
0.003976165238
0.00397948296
0.003981488212
0.003982652267
0.003983292334
0.00398361684
0.003983759436
0.003983804999
0.003983807677
0.003983791577
0.003983748858
0.003983681634
0.003983611702
0.003983567705
0.003983543201
0.00398353185
0.003983528448
0.003983528613
0.003983531057
0.003983537448
0.003983549195
0.003983567069
0.003983591224
0.003983621485
0.003983656986
0.003983696504
0.003983736827
0.003983772991
0.00398380546
0.003983834749
0.003983861169
0.003983885042
0.003983906702
0.003983926323
0.00398394394
0.003983959556
0.003983973348
0.003983985922
0.003983997335
0.003984007239
0.003984015516
0.00398402252
0.003984028942
0.003984034913
0.003984040044
0.003984044118
0.00398404724
0.003984050399
0.00398405326
0.003984055991
0.003984058167
0.003984058924
0.003984059696
0.003984060967
0.003984062795
0.003984062576
0.003984060684
0.003984061156
0.003984059459
0.00398405254
0.003984032726
0.003983977469
0.003983849135
0.003983518407
0.003982683878
0.003980581523
0.003975225885
0.003961732308
0.003927708573
0.00384258966
0.00363852845
0.003242531251
0.002921330078
0.002811936735
0.002793614335
0.002790889072
0.002790418428
0.002790336356
0.002790322031
0.002790319529
0.002790319092
0.002790319016
0.002790319003
0.002790319
0.002790319
0.002790319
0.002790319
0.002790319
0.002790319
0.002790319
0.002790319
0.002790319
0.002790319
0.002790319
0.002790319
0.002790319
0.002790319
0.002790319
0.002790319
0.002790319
0.002790319
0.002790319
0.002790319
0.002790319
0.002790319
0.002790319
0.002790319
0.002790319
0.002790319
0.002790319
0.002790319
0.002790319
0.002790319
0.002790319
0.002790319
0.002790319
0.002790319
0.002790319
0.002790319
0.002790319
0.002790319
0.002790319
0.002790319
0.002790319
0.002790319
0.002790319
0.002790319
0.002790319
0.002790319
0.002790319
0.002790319
0.002790319
0.002790319
0.002790319
0.002790319
0.002790319
0.002790319
0.002790319
0.002790319
0.002790319
0.002790319
0.002790319
0.002790319
0.002790319
0.002790319
)
;

boundaryField
{
    sides
    {
        type            zeroGradient;
    }
    empty
    {
        type            empty;
    }
}


// ************************************************************************* //
