/*--------------------------------*- C++ -*----------------------------------*\
| =========                 |                                                 |
| \\      /  F ield         | OpenFOAM: The Open Source CFD Toolbox           |
|  \\    /   O peration     | Version:  v2012                                 |
|   \\  /    A nd           | Website:  www.openfoam.com                      |
|    \\/     M anipulation  |                                                 |
\*---------------------------------------------------------------------------*/
FoamFile
{
    version     2.0;
    format      ascii;
    class       volVectorField;
    location    "0.2";
    object      U;
}
// * * * * * * * * * * * * * * * * * * * * * * * * * * * * * * * * * * * * * //

dimensions      [0 1 -1 0 0 0 0];


internalField   nonuniform List<vector> 
500
(
(3.261156769e-15 0 0)
(1.314564357e-15 0 0)
(1.168144752e-15 0 0)
(1.057642081e-15 0 0)
(2.765422705e-16 0 0)
(-4.130991366e-15 0 0)
(-3.566747023e-16 0 0)
(-6.038960561e-15 0 0)
(1.909818189e-15 0 0)
(2.172549687e-15 0 0)
(-1.896409535e-15 0 0)
(-2.797990929e-15 0 0)
(-7.117710744e-15 0 0)
(-5.176846923e-15 0 0)
(-5.309584287e-15 0 0)
(-4.027673862e-15 0 0)
(3.87530496e-16 0 0)
(-1.565845976e-15 0 0)
(-4.413584413e-15 0 0)
(-1.009442504e-15 0 0)
(-2.628110253e-15 0 0)
(-2.390934189e-15 0 0)
(-6.146137358e-15 0 0)
(1.720102193e-15 0 0)
(-2.611407656e-16 0 0)
(-2.569455737e-15 0 0)
(-3.257631053e-15 0 0)
(-2.846629525e-15 0 0)
(-4.729859913e-15 0 0)
(-5.085273868e-15 0 0)
(-2.316122269e-15 0 0)
(-3.66100133e-15 0 0)
(-8.436985811e-15 0 0)
(-8.140619628e-15 0 0)
(-8.899604455e-15 0 0)
(-2.355058655e-15 0 0)
(-6.062209438e-15 0 0)
(-1.551739735e-15 0 0)
(-1.717574425e-15 0 0)
(-2.279090988e-15 0 0)
(-2.133584218e-15 0 0)
(-9.67469653e-16 0 0)
(2.113408498e-15 0 0)
(-2.49445814e-15 0 0)
(-1.505038665e-15 0 0)
(6.143539849e-16 0 0)
(4.094907957e-15 0 0)
(1.607835434e-16 0 0)
(-3.401537882e-15 0 0)
(-2.370386756e-15 0 0)
(-4.446418274e-15 0 0)
(-2.593676483e-15 0 0)
(-2.922468264e-15 0 0)
(-9.349545453e-15 0 0)
(-6.094067719e-15 0 0)
(-5.081898212e-16 0 0)
(-3.020025176e-15 0 0)
(-1.049904558e-15 0 0)
(-7.279517219e-16 0 0)
(-6.249306172e-15 0 0)
(-5.953651027e-15 0 0)
(1.494202565e-15 0 0)
(8.532342372e-16 0 0)
(-7.292690126e-16 0 0)
(3.551721999e-16 0 0)
(5.231187616e-15 0 0)
(5.259258317e-15 0 0)
(5.290104513e-15 0 0)
(4.700892808e-15 0 0)
(1.775784082e-15 0 0)
(2.861192494e-15 0 0)
(-7.943026704e-15 0 0)
(9.171549236e-16 0 0)
(-2.450026192e-15 0 0)
(4.311586793e-15 0 0)
(-4.118166749e-15 0 0)
(9.451214245e-16 0 0)
(-1.345852741e-15 0 0)
(-3.146276626e-15 0 0)
(7.864783293e-15 0 0)
(9.115984851e-15 0 0)
(1.36858868e-14 0 0)
(3.619265436e-14 0 0)
(8.823272363e-14 0 0)
(2.134598531e-13 0 0)
(4.87652432e-13 0 0)
(1.089417942e-12 0 0)
(2.393531086e-12 0 0)
(5.212737845e-12 0 0)
(1.124747558e-11 0 0)
(2.403606943e-11 0 0)
(5.087186971e-11 0 0)
(1.066468566e-10 0 0)
(2.214501807e-10 0 0)
(4.55387922e-10 0 0)
(9.272868322e-10 0 0)
(1.869451093e-09 0 0)
(3.730888105e-09 0 0)
(7.369508025e-09 0 0)
(1.440512446e-08 0 0)
(2.785926478e-08 0 0)
(5.329844406e-08 0 0)
(1.008475889e-07 0 0)
(1.886828093e-07 0 0)
(3.489956858e-07 0 0)
(6.380118903e-07 0 0)
(1.15253224e-06 0 0)
(2.056750862e-06 0 0)
(3.624906822e-06 0 0)
(6.307741431e-06 0 0)
(1.083379564e-05 0 0)
(1.836018315e-05 0 0)
(3.069124662e-05 0 0)
(5.058667753e-05 0 0)
(8.218192765e-05 0 0)
(0.000131541083 0 0)
(0.0002073532395 0 0)
(0.0003217650244 0 0)
(0.0004913120675 0 0)
(0.0007378707382 0 0)
(0.001089501797 0 0)
(0.001581008434 0 0)
(0.002253996653 0 0)
(0.003156223759 0 0)
(0.004340067269 0 0)
(0.005860050038 0 0)
(0.007769511765 0 0)
(0.01011669893 0 0)
(0.01294071756 0 0)
(0.0162679124 0 0)
(0.02010926135 0 0)
(0.02445927878 0 0)
(0.02929669739 0 0)
(0.03458687704 0 0)
(0.04028553753 0 0)
(0.04634313616 0 0)
(0.0527091126 0 0)
(0.05933535027 0 0)
(0.06617850088 0 0)
(0.0732011538 0 0)
(0.0803716188 0 0)
(0.08766739936 0 0)
(0.09507442698 0 0)
(0.1025778527 0 0)
(0.1101682641 0 0)
(0.1178390585 0 0)
(0.1255842177 0 0)
(0.1333890762 0 0)
(0.1412430351 0 0)
(0.1491391469 0 0)
(0.1570724517 0 0)
(0.1650386515 0 0)
(0.1730341152 0 0)
(0.1810557251 0 0)
(0.1891007697 0 0)
(0.1971668986 0 0)
(0.205252081 0 0)
(0.213354567 0 0)
(0.2214728465 0 0)
(0.2296055909 0 0)
(0.2377515727 0 0)
(0.2459095492 0 0)
(0.2540783147 0 0)
(0.2622569064 0 0)
(0.2704445327 0 0)
(0.2786404975 0 0)
(0.2868441843 0 0)
(0.2950550446 0 0)
(0.3032725895 0 0)
(0.3114963836 0 0)
(0.3197260389 0 0)
(0.3279612106 0 0)
(0.3362015929 0 0)
(0.3444469161 0 0)
(0.3526969434 0 0)
(0.3609514695 0 0)
(0.3692103176 0 0)
(0.3774733384 0 0)
(0.3857404082 0 0)
(0.3940114277 0 0)
(0.4022863208 0 0)
(0.4105650323 0 0)
(0.4188475272 0 0)
(0.4271337882 0 0)
(0.435423814 0 0)
(0.4437176172 0 0)
(0.4520152221 0 0)
(0.460316662 0 0)
(0.4686219767 0 0)
(0.4769312099 0 0)
(0.4852444073 0 0)
(0.4935616141 0 0)
(0.5018828733 0 0)
(0.5102082237 0 0)
(0.5185376962 0 0)
(0.5268713102 0 0)
(0.5352090671 0 0)
(0.5435509443 0 0)
(0.5518968866 0 0)
(0.5602467911 0 0)
(0.56860048 0 0)
(0.5769576487 0 0)
(0.5853177966 0 0)
(0.5936801107 0 0)
(0.6020434426 0 0)
(0.6104066311 0 0)
(0.6187683866 0 0)
(0.6271286464 0 0)
(0.635486622 0 0)
(0.6438411656 0 0)
(0.6521925427 0 0)
(0.6605399723 0 0)
(0.6688791203 0 0)
(0.6772140586 0 0)
(0.6855446377 0 0)
(0.6938556062 0 0)
(0.7021618827 0 0)
(0.7104655519 0 0)
(0.7187357378 0 0)
(0.7269970934 0 0)
(0.735259839 0 0)
(0.7434809842 0 0)
(0.7516793795 0 0)
(0.7598736274 0 0)
(0.7680271636 0 0)
(0.7761435138 0 0)
(0.7842376719 0 0)
(0.7922975266 0 0)
(0.8003149266 0 0)
(0.8082921834 0 0)
(0.8162305601 0 0)
(0.8241265428 0 0)
(0.8319759069 0 0)
(0.8397759182 0 0)
(0.8475240185 0 0)
(0.855216011 0 0)
(0.8628451274 0 0)
(0.8703998243 0 0)
(0.8778572764 0 0)
(0.8851763594 0 0)
(0.8922946492 0 0)
(0.899119126 0 0)
(0.9055199802 0 0)
(0.9113343417 0 0)
(0.9163824275 0 0)
(0.9205076121 0 0)
(0.9236279579 0 0)
(0.9257819764 0 0)
(0.9271253142 0 0)
(0.927880692 0 0)
(0.9282610886 0 0)
(0.928428334 0 0)
(0.9284850928 0 0)
(0.9284950919 0 0)
(0.9284856125 0 0)
(0.9284458477 0 0)
(0.9283646668 0 0)
(0.9282709249 0 0)
(0.928203638 0 0)
(0.9281487599 0 0)
(0.9280996499 0 0)
(0.9280569439 0 0)
(0.9280196088 0 0)
(0.9279855822 0 0)
(0.9279549944 0 0)
(0.9279282718 0 0)
(0.9279060759 0 0)
(0.9278889528 0 0)
(0.9278754971 0 0)
(0.9278641079 0 0)
(0.9278536826 0 0)
(0.9278438982 0 0)
(0.9278339622 0 0)
(0.927825553 0 0)
(0.9278178394 0 0)
(0.9278153673 0 0)
(0.9278187255 0 0)
(0.9278177074 0 0)
(0.9278152385 0 0)
(0.9278108753 0 0)
(0.9278040635 0 0)
(0.9278012747 0 0)
(0.927805217 0 0)
(0.9278031873 0 0)
(0.9277972269 0 0)
(0.9277990454 0 0)
(0.9277970191 0 0)
(0.9277926045 0 0)
(0.9277958832 0 0)
(0.9277938097 0 0)
(0.9277892766 0 0)
(0.9277931662 0 0)
(0.9277913127 0 0)
(0.9277871782 0 0)
(0.9277925146 0 0)
(0.9277906523 0 0)
(0.9277867514 0 0)
(0.9277925481 0 0)
(0.9277907178 0 0)
(0.9277873132 0 0)
(0.9277920256 0 0)
(0.9277910147 0 0)
(0.9277893547 0 0)
(0.9277909792 0 0)
(0.9277906477 0 0)
(0.9277912065 0 0)
(0.9277916894 0 0)
(0.927792378 0 0)
(0.9277927128 0 0)
(0.9277935383 0 0)
(0.9277939186 0 0)
(0.9277948256 0 0)
(0.9277954084 0 0)
(0.9277962285 0 0)
(0.9277966485 0 0)
(0.9277973845 0 0)
(0.927797808 0 0)
(0.9277981016 0 0)
(0.9278002145 0 0)
(0.9277966193 0 0)
(0.927811115 0 0)
(0.9277940324 0 0)
(0.9278282984 0 0)
(0.9277857262 0 0)
(0.9278752052 0 0)
(0.9277704804 0 0)
(0.9279793372 0 0)
(0.9277358528 0 0)
(0.9281590922 0 0)
(0.9276670383 0 0)
(0.9284376058 0 0)
(0.927555705 0 0)
(0.9288000304 0 0)
(0.9274098416 0 0)
(0.9291716974 0 0)
(0.9272783032 0 0)
(0.9294362179 0 0)
(0.9272742406 0 0)
(0.9295103372 0 0)
(0.9275647768 0 0)
(0.92939063 0 0)
(0.9283076045 0 0)
(0.9292328733 0 0)
(0.9289456143 0 0)
(0.9279966144 0 0)
(0.9274046653 0 0)
(0.9275452229 0 0)
(0.9276979833 0 0)
(0.9277668393 0 0)
(0.9278065462 0 0)
(0.927828573 0 0)
(0.927840242 0 0)
(0.9278461979 0 0)
(0.9278491369 0 0)
(0.927850559 0 0)
(0.9278512403 0 0)
(0.9278515955 0 0)
(0.9278518396 0 0)
(0.9278520388 0 0)
(0.9278522205 0 0)
(0.927852357 0 0)
(0.9278525025 0 0)
(0.9278526922 0 0)
(0.9278530473 0 0)
(0.927853313 0 0)
(0.9278536065 0 0)
(0.9278538491 0 0)
(0.9278540347 0 0)
(0.9278541606 0 0)
(0.927854241 0 0)
(0.9278542312 0 0)
(0.9278541583 0 0)
(0.9278540067 0 0)
(0.9278539927 0 0)
(0.9278540453 0 0)
(0.9278540919 0 0)
(0.92785408 0 0)
(0.9278541682 0 0)
(0.927854166 0 0)
(0.9278542433 0 0)
(0.9278542562 0 0)
(0.927854259 0 0)
(0.9278542196 0 0)
(0.9278541385 0 0)
(0.9278540852 0 0)
(0.927854132 0 0)
(0.9278541865 0 0)
(0.9278541654 0 0)
(0.9278540548 0 0)
(0.9278538383 0 0)
(0.9278534969 0 0)
(0.927852992 0 0)
(0.9278523359 0 0)
(0.9278515576 0 0)
(0.9278508883 0 0)
(0.9278505331 0 0)
(0.9278501087 0 0)
(0.9278495438 0 0)
(0.9278488992 0 0)
(0.9278482884 0 0)
(0.9278482002 0 0)
(0.9278482599 0 0)
(0.9278480967 0 0)
(0.9278477806 0 0)
(0.9278472851 0 0)
(0.927846907 0 0)
(0.9278472148 0 0)
(0.9278471903 0 0)
(0.9278469305 0 0)
(0.9278460829 0 0)
(0.9278450037 0 0)
(0.9278468391 0 0)
(0.9278445656 0 0)
(0.9278407974 0 0)
(0.9278328935 0 0)
(0.9278132214 0 0)
(0.9277714106 0 0)
(0.9276532913 0 0)
(0.9273638663 0 0)
(0.9266325546 0 0)
(0.9247636008 0 0)
(0.9200833254 0 0)
(0.9082295734 0 0)
(0.8785612305 0 0)
(0.8056831978 0 0)
(0.6333583212 0 0)
(0.3116443181 0 0)
(0.08598698512 0 0)
(0.0174910397 0 0)
(0.003229200557 0 0)
(0.0005671211615 0 0)
(9.910880142e-05 0 0)
(1.730873877e-05 0 0)
(3.02231818e-06 0 0)
(5.277365591e-07 0 0)
(9.214976911e-08 0 0)
(1.609051682e-08 0 0)
(2.809614204e-09 0 0)
(4.905963098e-10 0 0)
(8.566772693e-11 0 0)
(1.49622805e-11 0 0)
(2.617479082e-12 0 0)
(4.573124463e-13 0 0)
(8.128522395e-14 0 0)
(1.779712537e-14 0 0)
(5.810840396e-15 0 0)
(2.288429921e-15 0 0)
(4.502034842e-15 0 0)
(6.66588027e-15 0 0)
(3.943048946e-15 0 0)
(6.266417522e-15 0 0)
(-3.567956295e-15 0 0)
(2.864983802e-16 0 0)
(-3.923470046e-15 0 0)
(-2.019006579e-15 0 0)
(-5.598400898e-15 0 0)
(3.948674113e-15 0 0)
(-3.646772812e-15 0 0)
(2.299556945e-15 0 0)
(-3.968410988e-15 0 0)
(-1.624329308e-15 0 0)
(-5.531743791e-15 0 0)
(-2.683549857e-15 0 0)
(-5.867087166e-15 0 0)
(-3.815708542e-15 0 0)
(4.483823707e-16 0 0)
(-3.975499668e-15 0 0)
(-3.434850725e-15 0 0)
(-1.231257733e-15 0 0)
(3.975508968e-15 0 0)
(-2.763743096e-15 0 0)
(-1.55079439e-16 0 0)
(-8.279271371e-15 0 0)
(-7.276738267e-15 0 0)
(-7.04893704e-15 0 0)
(-5.776409452e-15 0 0)
(-5.477572165e-15 0 0)
(-2.262902301e-15 0 0)
(3.756189194e-15 0 0)
(-8.106648455e-16 0 0)
(-3.712010726e-15 0 0)
(1.759661985e-15 0 0)
(-4.2480077e-15 0 0)
(2.846555988e-16 0 0)
(4.479228871e-15 0 0)
(3.655528768e-15 0 0)
(-5.720930771e-16 0 0)
(5.149978745e-15 0 0)
(-3.886392124e-17 0 0)
(2.77754577e-15 0 0)
(1.902090037e-15 0 0)
(3.634337575e-15 0 0)
(1.805156592e-16 0 0)
(-1.715340764e-15 0 0)
(2.748514411e-15 0 0)
(-2.361981838e-15 0 0)
(-3.70496005e-15 0 0)
(-1.310444629e-15 0 0)
(-3.83727336e-15 0 0)
(-3.859549198e-15 0 0)
)
;

boundaryField
{
    sides
    {
        type            fixedValue;
        value           uniform (0 0 0);
    }
    empty
    {
        type            empty;
    }
}


// ************************************************************************* //
