/*--------------------------------*- C++ -*----------------------------------*\
| =========                 |                                                 |
| \\      /  F ield         | OpenFOAM: The Open Source CFD Toolbox           |
|  \\    /   O peration     | Version:  v2012                                 |
|   \\  /    A nd           | Website:  www.openfoam.com                      |
|    \\/     M anipulation  |                                                 |
\*---------------------------------------------------------------------------*/
FoamFile
{
    version     2.0;
    format      ascii;
    class       volScalarField;
    location    "0.2";
    object      p;
}
// * * * * * * * * * * * * * * * * * * * * * * * * * * * * * * * * * * * * * //

dimensions      [1 -1 -2 0 0 0 0];


internalField   nonuniform List<scalar> 
1000
(
1
1
1
1
1
1
1
1
1
1
1
1
1
1
1
1
1
1
1
1
1
1
1
1
1
1
1
1
1
1
1
1
1
1
1
1
1
1
1
1
1
1
1
1
1
1
1
1
1
1
1
1
1
1
1
1
1
1
1
1
1
1
1
1
1
1
1
1
1
1
1
1
1
1
1
1
1
1
1
1
1
1
1
1
1
1
1
1
1
1
1
1
1
1
1
1
1
1
1
1
1
1
1
1
1
1
1
1
1
1
1
1
1
1
1
1
1
1
1
1
1
1
1
1
1
1
1
1
1
1
1
1
1
1
1
1
1
1
1
1
1
1
1
1
1
1
1
1
1
1
1
1
1
1
1
1
1
1
1
1
1
1
1
1
1
1
1
1
1
1
1
1
1
1
1
1
1
1
1
1
1
1
1
1
1
1
1
1
1
1
1
1
1
1
1
1
1
1
1
1
1
1
1
1
1
1
1
1
1
1
1
1
0.9999999999
0.9999999999
0.9999999998
0.9999999996
0.9999999994
0.9999999989
0.9999999981
0.9999999968
0.9999999945
0.9999999906
0.9999999842
0.9999999734
0.9999999558
0.9999999268
0.9999998797
0.9999998038
0.9999996823
0.9999994895
0.9999991857
0.9999987112
0.9999979761
0.9999968468
0.999995127
0.9999925312
0.9999886482
0.9999828935
0.9999744453
0.9999621632
0.9999444843
0.9999192966
0.9998837864
0.9998342613
0.9997659534
0.9996728085
0.9995472778
0.9993801275
0.9991602941
0.9988748116
0.9985088454
0.9980458594
0.9974679418
0.9967562987
0.9958919099
0.9948563168
0.9936324932
0.9922057291
0.9905644465
0.9887008635
0.986611437
0.9842970328
0.9817628066
0.9790178102
0.9760743737
0.9729473337
0.969653193
0.9662092927
0.9626330686
0.9589414366
0.9551503338
0.9512744148
0.947326889
0.9433194716
0.9392624197
0.9351646227
0.9310337242
0.9268762554
0.9226977667
0.9185029225
0.9142971086
0.9100831634
0.905863048
0.9016382706
0.8974100277
0.8931801592
0.8889512283
0.8847256778
0.8805048193
0.8762897499
0.8720813844
0.8678805401
0.8636879615
0.8595043243
0.8553302426
0.8511662763
0.8470129361
0.842870688
0.8387399575
0.8346211319
0.8305145638
0.8264205722
0.822339444
0.818271435
0.8142167708
0.8101756496
0.806148246
0.8021347185
0.798135221
0.7941499146
0.7901789742
0.7862225499
0.7822807433
0.7783536491
0.7744413518
0.7705439261
0.7666614375
0.7627939435
0.758941494
0.7551041318
0.7512818934
0.747474809
0.7436829035
0.7399061965
0.736144703
0.7323984334
0.7286673939
0.7249515872
0.7212510121
0.7175656643
0.7138955364
0.7102406181
0.7066008964
0.7029763559
0.6993669789
0.6957727453
0.6921936334
0.6886296191
0.685080677
0.6815467797
0.6780278984
0.6745240029
0.6710350614
0.6675610409
0.6641019075
0.6606576256
0.6572281588
0.6538134699
0.6504135203
0.6470282707
0.643657681
0.6403017101
0.6369603163
0.6336334571
0.6303210892
0.6270231687
0.6237396513
0.6204704917
0.6172156444
0.6139750633
0.6107487017
0.6075365125
0.6043384484
0.6011544615
0.5979845036
0.5948285263
0.5916864807
0.588558318
0.585443989
0.5823434442
0.5792566343
0.5761835096
0.5731240205
0.5700781174
0.5670457505
0.5640268702
0.5610214269
0.5580293712
0.5550506537
0.5520852251
0.5491330363
0.5461940382
0.5432681823
0.5403554199
0.5374557027
0.5345689828
0.5316952123
0.528834344
0.5259863306
0.5231511258
0.5203286831
0.5175189566
0.5147219008
0.5119374701
0.5091656189
0.506406302
0.5036594747
0.5009250942
0.4982031202
0.4954935164
0.4927962512
0.4901112984
0.487438636
0.4847782465
0.4821301156
0.4794942324
0.4768705903
0.4742591912
0.4716600487
0.469073176
0.4664985298
0.4639360727
0.461385795
0.4588476022
0.4563215162
0.4538075721
0.4513055792
0.4488156253
0.4463379155
0.4438720112
0.4414179734
0.438976363
0.4365465407
0.4341282548
0.4317224962
0.4293289236
0.4269465405
0.4245763008
0.4222188496
0.4198726846
0.4175377346
0.4152156136
0.4129055602
0.4106062584
0.408318773
0.4060444262
0.403781634
0.4015292938
0.3992895286
0.3970630535
0.3948476473
0.3926426988
0.3904510933
0.3882728796
0.3861052747
0.383948227
0.3818054235
0.3796757851
0.3775561945
0.3754474753
0.3733534225
0.3712727285
0.369201822
0.3671418901
0.3650972507
0.3630660586
0.3610434938
0.3590327022
0.357037762
0.3550540795
0.3530795528
0.3511188378
0.3491724328
0.3472344125
0.3453098156
0.3433995014
0.3414996344
0.3396087106
0.3377338906
0.3358729701
0.3340193929
0.3321813595
0.3303586306
0.3285467729
0.3267504173
0.3249691046
0.3232037234
0.3214558269
0.3197282845
0.3180252885
0.3163523691
0.3147164663
0.3131269458
0.3115958705
0.3101385652
0.3087735946
0.3075220078
0.3064059734
0.3054455163
0.3046549264
0.3040383352
0.3035875278
0.3032818638
0.3030924963
0.3029874191
0.3029375903
0.3029194247
0.3029162633
0.3029201101
0.3029351324
0.3029671402
0.3030085446
0.3030385625
0.3030599223
0.3030781688
0.3030944704
0.303108896
0.3031213808
0.3031319283
0.3031407147
0.3031480631
0.3031543809
0.3031600118
0.3031651487
0.3031697526
0.3031736373
0.3031766523
0.3031787741
0.3031801805
0.3031810484
0.3031815509
0.3031818148
0.3031821122
0.3031832131
0.3031857757
0.3031875685
0.3031879522
0.3031877087
0.30318783
0.3031885389
0.3031899331
0.3031908003
0.3031905457
0.3031906162
0.3031907808
0.3031912372
0.3031916911
0.3031911343
0.3031911823
0.3031913509
0.3031910289
0.3031910136
0.3031909969
0.3031909067
0.3031907761
0.303190665
0.3031906066
0.303190505
0.3031903643
0.3031902611
0.3031901101
0.3031899287
0.3031897436
0.3031895514
0.3031893473
0.3031891204
0.3031888581
0.3031885761
0.3031882705
0.303187944
0.3031876337
0.3031873641
0.303187108
0.3031868312
0.3031865161
0.3031862809
0.303186088
0.303185912
0.3031857465
0.3031855654
0.3031853563
0.3031851167
0.3031849069
0.3031847241
0.303184537
0.3031843164
0.3031841161
0.3031839773
0.3031838586
0.303183729
0.3031835973
0.3031834867
0.3031833686
0.3031832489
0.3031831572
0.3031830578
0.3031829692
0.3031828998
0.3031828271
0.3031827774
0.3031827334
0.3031827011
0.3031826837
0.3031826566
0.3031826291
0.303182628
0.3031825977
0.3031825858
0.3031825667
0.3031825608
0.3031825427
0.3031825336
0.3031825214
0.3031825216
0.3031825067
0.3031825134
0.3031825003
0.3031825164
0.3031825018
0.3031825241
0.3031825139
0.3031825388
0.3031825337
0.3031825593
0.3031825592
0.3031825861
0.3031825892
0.3031826188
0.303182622
0.3031826566
0.3031826655
0.3031827059
0.3031826931
0.303182732
0.3031827235
0.3031827644
0.3031827488
0.3031827858
0.3031827734
0.3031828052
0.3031827947
0.3031828215
0.3031828116
0.3031828378
0.3031828231
0.3031828542
0.3031828305
0.3031828711
0.3031828371
0.3031828905
0.3031828466
0.3031829148
0.3031828618
0.3031829469
0.3031828846
0.3031829902
0.3031829103
0.3031830453
0.3031829285
0.3031831209
0.3031829217
0.3031832469
0.3031828506
0.3031834914
0.3031826315
0.3031840088
0.3031820885
0.3031851123
0.3031808595
0.3031873755
0.3031782612
0.303191787
0.3031731403
0.3031999334
0.3031637057
0.3032140629
0.3031474749
0.3032369019
0.3031215594
0.3032709878
0.3030835584
0.3033173115
0.3030332865
0.3033734152
0.3029751356
0.3034317283
0.3029201162
0.3034794765
0.3028853462
0.3035010456
0.3028892782
0.3034826927
0.3029431959
0.3034134874
0.3030614818
0.3032818334
0.3031836071
0.303067861
0.303180836
0.3031989597
0.3031921475
0.3031895607
0.3031892321
0.3031889912
0.3031888217
0.3031887116
0.3031886401
0.3031885936
0.3031885723
0.3031885702
0.3031885751
0.3031885863
0.3031886031
0.3031886244
0.3031886493
0.3031886777
0.3031887092
0.3031887426
0.303188775
0.3031888033
0.3031888276
0.3031888483
0.3031888673
0.3031888874
0.3031889088
0.3031889309
0.303188952
0.3031889739
0.3031889986
0.3031890278
0.3031890659
0.3031890955
0.3031891257
0.303189158
0.3031891896
0.3031892222
0.3031892533
0.303189282
0.3031893085
0.3031893327
0.303189357
0.3031893845
0.3031894155
0.3031894477
0.3031894789
0.3031895081
0.3031895407
0.3031895785
0.3031896184
0.3031896542
0.3031896821
0.3031897036
0.3031897302
0.3031897662
0.3031898068
0.3031898426
0.3031898647
0.3031898808
0.3031899128
0.3031899636
0.3031900193
0.3031900643
0.3031900689
0.3031900809
0.3031901078
0.3031901704
0.3031902274
0.3031902513
0.3031902523
0.3031902652
0.3031903061
0.3031903722
0.3031904187
0.3031904293
0.3031904233
0.3031904437
0.3031904894
0.3031905529
0.3031905957
0.3031906065
0.3031906113
0.3031906289
0.3031906876
0.3031907557
0.3031907929
0.3031908074
0.3031908125
0.3031908397
0.3031909129
0.3031909707
0.3031910122
0.3031910351
0.3031910479
0.3031910845
0.3031911649
0.3031912242
0.3031912643
0.3031912869
0.3031913016
0.3031913496
0.3031914371
0.3031914964
0.3031915323
0.3031915526
0.3031915677
0.3031916236
0.3031917101
0.3031917665
0.3031917977
0.3031918154
0.3031918345
0.3031918956
0.3031919759
0.3031920295
0.3031920578
0.303192075
0.3031921093
0.3031921822
0.303192238
0.3031922748
0.303192298
0.3031923255
0.3031923907
0.3031924621
0.3031925066
0.3031925218
0.3031925266
0.3031925735
0.3031926647
0.3031927191
0.3031927426
0.3031927272
0.3031927262
0.3031928014
0.3031929094
0.3031929514
0.3031929391
0.3031928484
0.3031928489
0.303193008
0.3031931854
0.3031932153
0.3031930655
0.3031928299
0.3031928712
0.3031930737
0.3031931983
0.3031930146
0.303192142
0.3031898297
0.3031864176
0.3031758234
0.3031496929
0.3030833566
0.3029114837
0.3024847369
0.3013985084
0.2986742572
0.291910911
0.275597628
0.2390359628
0.1737986262
0.1218716884
0.1047403013
0.1008042564
0.1001388473
0.1000241865
0.1000042222
0.1000007373
0.1000001287
0.1000000225
0.1000000039
0.1000000007
0.1000000001
0.1
0.1
0.1
0.1
0.1
0.1
0.1
0.1
0.1
0.1
0.1
0.1
0.1
0.1
0.1
0.1
0.1
0.1
0.1
0.1
0.1
0.1
0.1
0.1
0.1
0.1
0.1
0.1
0.1
0.1
0.1
0.1
0.1
0.1
0.1
0.1
0.1
0.1
0.1
0.1
0.1
0.1
0.1
0.1
0.1
0.1
0.1
0.1
0.1
0.1
0.1
0.1
0.1
0.1
0.1
0.1
0.1
0.1
0.1
0.1
0.1
0.1
0.1
0.1
0.1
0.1
0.1
0.1
0.1
0.1
0.1
0.1
0.1
0.1
0.1
0.1
0.1
0.1
0.1
0.1
0.1
0.1
0.1
0.1
0.1
0.1
0.1
0.1
0.1
0.1
0.1
0.1
0.1
0.1
0.1
0.1
0.1
0.1
0.1
0.1
0.1
0.1
0.1
0.1
0.1
0.1
0.1
0.1
0.1
0.1
0.1
0.1
0.1
0.1
0.1
0.1
0.1
0.1
0.1
0.1
0.1
0.1
0.1
0.1
0.1
0.1
0.1
0.1
0.1
0.1
0.1
0.1
0.1
0.1
0.1
0.1
)
;

boundaryField
{
    sides
    {
        type            zeroGradient;
    }
    empty
    {
        type            empty;
    }
}


// ************************************************************************* //
