/*--------------------------------*- C++ -*----------------------------------*\
| =========                 |                                                 |
| \\      /  F ield         | OpenFOAM: The Open Source CFD Toolbox           |
|  \\    /   O peration     | Version:  v2012                                 |
|   \\  /    A nd           | Website:  www.openfoam.com                      |
|    \\/     M anipulation  |                                                 |
\*---------------------------------------------------------------------------*/
FoamFile
{
    version     2.0;
    format      ascii;
    class       volScalarField;
    location    "0.2";
    object      rho1;
}
// * * * * * * * * * * * * * * * * * * * * * * * * * * * * * * * * * * * * * //

dimensions      [1 -3 0 0 0 0 0];


internalField   nonuniform List<scalar> 
1000
(
1033.041348
1033.041348
1033.041348
1033.041348
1033.041348
1033.041348
1033.041348
1033.041348
1033.041348
1033.041348
1033.041348
1033.041348
1033.041348
1033.041348
1033.041348
1033.041348
1033.041348
1033.041348
1033.041348
1033.041348
1033.041348
1033.041348
1033.041348
1033.041348
1033.041348
1033.041348
1033.041348
1033.041348
1033.041348
1033.041348
1033.041348
1033.041348
1033.041348
1033.041348
1033.041348
1033.041348
1033.041348
1033.041348
1033.041348
1033.041348
1033.041348
1033.041348
1033.041348
1033.041348
1033.041348
1033.041348
1033.041348
1033.041348
1033.041348
1033.041348
1033.041348
1033.041348
1033.041348
1033.041348
1033.041348
1033.041348
1033.041348
1033.041348
1033.041348
1033.041348
1033.041348
1033.041348
1033.041348
1033.041348
1033.041348
1033.041348
1033.041348
1033.041348
1033.041348
1033.041348
1033.041348
1033.041348
1033.041348
1033.041348
1033.041348
1033.041348
1033.041348
1033.041348
1033.041348
1033.041348
1033.041348
1033.041348
1033.041348
1033.041348
1033.041348
1033.041348
1033.041348
1033.041348
1033.041348
1033.041348
1033.041348
1033.041348
1033.041348
1033.041348
1033.041348
1033.041348
1033.041348
1033.041348
1033.041348
1033.041348
1033.041348
1033.041348
1033.041348
1033.041348
1033.041348
1033.041348
1033.041348
1033.041348
1033.041348
1033.041348
1033.041348
1033.041348
1033.041348
1033.041348
1033.041348
1033.041348
1033.041348
1033.041348
1033.041348
1033.041348
1033.041348
1033.041348
1033.041348
1033.041348
1033.041348
1033.041348
1033.041348
1033.041348
1033.041348
1033.041348
1033.041348
1033.041348
1033.041348
1033.041348
1033.041348
1033.041348
1033.041348
1033.041348
1033.041348
1033.041348
1033.041348
1033.041348
1033.041348
1033.041348
1033.041348
1033.041348
1033.041348
1033.041348
1033.041348
1033.041348
1033.041348
1033.041348
1033.041348
1033.041348
1033.041348
1033.041348
1033.041348
1033.041348
1033.041348
1033.041348
1033.041348
1033.041348
1033.041348
1033.041348
1033.041348
1033.041348
1033.041348
1033.041348
1033.041348
1033.041348
1033.041348
1033.041348
1033.041348
1033.041348
1033.041348
1033.041348
1033.041348
1033.041348
1033.041348
1033.041348
1033.041348
1033.041348
1033.041348
1033.041348
1033.041348
1033.041348
1033.041348
1033.041348
1033.041348
1033.041348
1033.041348
1033.041348
1033.041348
1033.041348
1033.041348
1033.041348
1033.041348
1033.041348
1033.041348
1033.041348
1033.041348
1033.041348
1033.041348
1033.041348
1033.041348
1033.041348
1033.041348
1033.041348
1033.041348
1033.041348
1033.041348
1033.041348
1033.041348
1033.041348
1033.041348
1033.041348
1033.041348
1033.041348
1033.041348
1033.041348
1033.041348
1033.041348
1033.041348
1033.041348
1033.041348
1033.041348
1033.041348
1033.041348
1033.041348
1033.041348
1033.041348
1033.041348
1033.041348
1033.041348
1033.041348
1033.041348
1033.041347
1033.041347
1033.041347
1033.041347
1033.041346
1033.041345
1033.041344
1033.041343
1033.041341
1033.041338
1033.041334
1033.041329
1033.041323
1033.041315
1033.041304
1033.04129
1033.041273
1033.041252
1033.041226
1033.041196
1033.041159
1033.041117
1033.041069
1033.041013
1033.040952
1033.040883
1033.040808
1033.040726
1033.040639
1033.040546
1033.040447
1033.040345
1033.040238
1033.040128
1033.040014
1033.039898
1033.03978
1033.03966
1033.039538
1033.039414
1033.03929
1033.039165
1033.039038
1033.038911
1033.038784
1033.038656
1033.038528
1033.0384
1033.038271
1033.038142
1033.038013
1033.037884
1033.037755
1033.037625
1033.037496
1033.037367
1033.037238
1033.037109
1033.03698
1033.036852
1033.036723
1033.036595
1033.036467
1033.036338
1033.036211
1033.036083
1033.035956
1033.035829
1033.035702
1033.035575
1033.035449
1033.035322
1033.035197
1033.035071
1033.034946
1033.03482
1033.034696
1033.034571
1033.034447
1033.034323
1033.034199
1033.034076
1033.033953
1033.03383
1033.033708
1033.033586
1033.033464
1033.033343
1033.033221
1033.0331
1033.03298
1033.03286
1033.03274
1033.03262
1033.032501
1033.032382
1033.032263
1033.032145
1033.032027
1033.031909
1033.031792
1033.031675
1033.031558
1033.031442
1033.031326
1033.03121
1033.031095
1033.03098
1033.030865
1033.030751
1033.030636
1033.030523
1033.030409
1033.030296
1033.030183
1033.030071
1033.029959
1033.029847
1033.029735
1033.029624
1033.029513
1033.029402
1033.029292
1033.029182
1033.029073
1033.028963
1033.028854
1033.028746
1033.028637
1033.028529
1033.028422
1033.028314
1033.028207
1033.0281
1033.027994
1033.027888
1033.027782
1033.027676
1033.027571
1033.027466
1033.027361
1033.027257
1033.027153
1033.027049
1033.026946
1033.026843
1033.02674
1033.026638
1033.026535
1033.026433
1033.026332
1033.026231
1033.02613
1033.026029
1033.025929
1033.025828
1033.025729
1033.025629
1033.02553
1033.025431
1033.025332
1033.025234
1033.025136
1033.025038
1033.024941
1033.024844
1033.024747
1033.02465
1033.024554
1033.024458
1033.024362
1033.024267
1033.024172
1033.024077
1033.023983
1033.023889
1033.023795
1033.023701
1033.023608
1033.023515
1033.023422
1033.02333
1033.023238
1033.023146
1033.023054
1033.022963
1033.022872
1033.022782
1033.022692
1033.022602
1033.022512
1033.022423
1033.022334
1033.022245
1033.022157
1033.022068
1033.021981
1033.021893
1033.021806
1033.021719
1033.021633
1033.021546
1033.02146
1033.021375
1033.02129
1033.021205
1033.02112
1033.021036
1033.020952
1033.020868
1033.020785
1033.020702
1033.020619
1033.020537
1033.020455
1033.020374
1033.020292
1033.020211
1033.020131
1033.020051
1033.019971
1033.019892
1033.019813
1033.019734
1033.019655
1033.019577
1033.0195
1033.019422
1033.019345
1033.019269
1033.019193
1033.019117
1033.019041
1033.018966
1033.018891
1033.018817
1033.018743
1033.01867
1033.018597
1033.018524
1033.018453
1033.018381
1033.018311
1033.018241
1033.018172
1033.018105
1033.01804
1033.017977
1033.017917
1033.01786
1033.017808
1033.017762
1033.017723
1033.01769
1033.017664
1033.017645
1033.017633
1033.017625
1033.01762
1033.017618
1033.017618
1033.017617
1033.017618
1033.017618
1033.017619
1033.017621
1033.017622
1033.017623
1033.017624
1033.017625
1033.017625
1033.017626
1033.017626
1033.017627
1033.017627
1033.017627
1033.017627
1033.017628
1033.017628
1033.017628
1033.017628
1033.017628
1033.017628
1033.017628
1033.017628
1033.017628
1033.017628
1033.017628
1033.017628
1033.017628
1033.017628
1033.017628
1033.017628
1033.017628
1033.017629
1033.017629
1033.017629
1033.017629
1033.017629
1033.017629
1033.017629
1033.017629
1033.017629
1033.017629
1033.017629
1033.017628
1033.017628
1033.017628
1033.017628
1033.017628
1033.017628
1033.017628
1033.017628
1033.017628
1033.017628
1033.017628
1033.017628
1033.017628
1033.017628
1033.017628
1033.017628
1033.017628
1033.017628
1033.017628
1033.017628
1033.017628
1033.017628
1033.017628
1033.017628
1033.017628
1033.017628
1033.017628
1033.017628
1033.017628
1033.017628
1033.017628
1033.017628
1033.017628
1033.017628
1033.017628
1033.017628
1033.017628
1033.017628
1033.017628
1033.017628
1033.017628
1033.017628
1033.017628
1033.017628
1033.017628
1033.017628
1033.017628
1033.017628
1033.017627
1033.017627
1033.017627
1033.017627
1033.017627
1033.017627
1033.017627
1033.017627
1033.017627
1033.017627
1033.017627
1033.017627
1033.017627
1033.017627
1033.017627
1033.017627
1033.017627
1033.017627
1033.017627
1033.017627
1033.017627
1033.017627
1033.017627
1033.017627
1033.017627
1033.017627
1033.017627
1033.017627
1033.017627
1033.017627
1033.017627
1033.017627
1033.017627
1033.017627
1033.017626
1033.017626
1033.017626
1033.017626
1033.017626
1033.017626
1033.017626
1033.017626
1033.017626
1033.017626
1033.017626
1033.017626
1033.017626
1033.017626
1033.017626
1033.017626
1033.017626
1033.017625
1033.017625
1033.017625
1033.017625
1033.017625
1033.017625
1033.017625
1033.017625
1033.017625
1033.017625
1033.017625
1033.017624
1033.017624
1033.017624
1033.017624
1033.017624
1033.017623
1033.017623
1033.017623
1033.017622
1033.017621
1033.01762
1033.017618
1033.017616
1033.017611
1033.017608
1033.017596
1033.01759
1033.017569
1033.017555
1033.017517
1033.01749
1033.017424
1033.017374
1033.017268
1033.017181
1033.017018
1033.016876
1033.016642
1033.016427
1033.016113
1033.015814
1033.015422
1033.015037
1033.014583
1033.014128
1033.013642
1033.01315
1033.012692
1033.012313
1033.012008
1033.011766
1033.011575
1033.011426
1033.011311
1033.011223
1033.011156
1033.011106
1033.011069
1033.011042
1033.011022
1033.011008
1033.010998
1033.010991
1033.010986
1033.010983
1033.01098
1033.010979
1033.010978
1033.010977
1033.010977
1033.010977
1033.010977
1033.010976
1033.010976
1033.010976
1033.010976
1033.010976
1033.010976
1033.010976
1033.010976
1033.010976
1033.010976
1033.010976
1033.010976
1033.010976
1033.010976
1033.010976
1033.010976
1033.010976
1033.010975
1033.010975
1033.010975
1033.010975
1033.010975
1033.010975
1033.010975
1033.010975
1033.010975
1033.010975
1033.010975
1033.010975
1033.010975
1033.010975
1033.010975
1033.010975
1033.010975
1033.010975
1033.010975
1033.010975
1033.010975
1033.010975
1033.010975
1033.010975
1033.010975
1033.010975
1033.010975
1033.010975
1033.010975
1033.010975
1033.010975
1033.010975
1033.010975
1033.010975
1033.010975
1033.010975
1033.010975
1033.010975
1033.010975
1033.010975
1033.010975
1033.010975
1033.010975
1033.010975
1033.010975
1033.010975
1033.010975
1033.010975
1033.010975
1033.010975
1033.010975
1033.010975
1033.010975
1033.010975
1033.010975
1033.010975
1033.010975
1033.010975
1033.010975
1033.010975
1033.010975
1033.010975
1033.010975
1033.010975
1033.010975
1033.010975
1033.010975
1033.010975
1033.010975
1033.010975
1033.010975
1033.010975
1033.010975
1033.010975
1033.010975
1033.010975
1033.010975
1033.010975
1033.010975
1033.010975
1033.010975
1033.010975
1033.010975
1033.010975
1033.010975
1033.010975
1033.010975
1033.010975
1033.010975
1033.010975
1033.010975
1033.010975
1033.010975
1033.010975
1033.010975
1033.010975
1033.010975
1033.010975
1033.010975
1033.010975
1033.010975
1033.010975
1033.010975
1033.010975
1033.010975
1033.010975
1033.010975
1033.010975
1033.010975
1033.010975
1033.010975
1033.010975
1033.010974
1033.010972
1033.010968
1033.010956
1033.010927
1033.010855
1033.010674
1033.010234
1033.009232
1033.00735
1033.005843
1033.005325
1033.005198
1033.005174
1033.005169
1033.005169
1033.005169
1033.005168
1033.005168
1033.005168
1033.005168
1033.005168
1033.005168
1033.005168
1033.005168
1033.005168
1033.005168
1033.005168
1033.005168
1033.005168
1033.005168
1033.005168
1033.005168
1033.005168
1033.005168
1033.005168
1033.005168
1033.005168
1033.005168
1033.005168
1033.005168
1033.005168
1033.005168
1033.005168
1033.005168
1033.005168
1033.005168
1033.005168
1033.005168
1033.005168
1033.005168
1033.005168
1033.005168
1033.005168
1033.005168
1033.005168
1033.005168
1033.005168
1033.005168
1033.005168
1033.005168
1033.005168
1033.005168
1033.005168
1033.005168
1033.005168
1033.005168
1033.005168
1033.005168
1033.005168
1033.005168
1033.005168
1033.005168
1033.005168
1033.005168
1033.005168
1033.005168
1033.005168
1033.005168
1033.005168
1033.005168
1033.005168
1033.005168
1033.005168
1033.005168
1033.005168
1033.005168
1033.005168
1033.005168
1033.005168
1033.005168
1033.005168
1033.005168
1033.005168
1033.005168
1033.005168
1033.005168
1033.005168
1033.005168
1033.005168
1033.005168
1033.005168
1033.005168
1033.005168
1033.005168
1033.005168
1033.005168
1033.005168
1033.005168
1033.005168
1033.005168
1033.005168
1033.005168
1033.005168
1033.005168
1033.005168
1033.005168
1033.005168
1033.005168
1033.005168
1033.005168
1033.005168
1033.005168
1033.005168
1033.005168
1033.005168
1033.005168
1033.005168
1033.005168
1033.005168
1033.005168
1033.005168
1033.005168
1033.005168
1033.005168
1033.005168
1033.005168
1033.005168
1033.005168
1033.005168
1033.005168
1033.005168
1033.005168
1033.005168
1033.005168
1033.005168
1033.005168
1033.005168
1033.005168
1033.005168
1033.005168
1033.005168
1033.005168
1033.005168
1033.005168
1033.005168
1033.005168
1033.005168
)
;

boundaryField
{
    sides
    {
        type            calculated;
        value           nonuniform List<scalar> 2(1033.005168 1033.041348);
    }
    empty
    {
        type            empty;
    }
}


// ************************************************************************* //
