/*--------------------------------*- C++ -*----------------------------------*\
| =========                 |                                                 |
| \\      /  F ield         | OpenFOAM: The Open Source CFD Toolbox           |
|  \\    /   O peration     | Version:  v2012                                 |
|   \\  /    A nd           | Website:  www.openfoam.com                      |
|    \\/     M anipulation  |                                                 |
\*---------------------------------------------------------------------------*/
FoamFile
{
    version     2.0;
    format      ascii;
    class       volScalarField;
    location    "0.2";
    object      rho2;
}
// * * * * * * * * * * * * * * * * * * * * * * * * * * * * * * * * * * * * * //

dimensions      [1 -3 0 0 0 0 0];


internalField   nonuniform List<scalar> 
1000
(
0.9989740407
0.9989740407
0.9989740407
0.9989740407
0.9989740407
0.9989740407
0.9989740407
0.9989740407
0.9989740407
0.9989740407
0.9989740407
0.9989740407
0.9989740407
0.9989740407
0.9989740407
0.9989740407
0.9989740407
0.9989740407
0.9989740407
0.9989740407
0.9989740407
0.9989740407
0.9989740407
0.9989740407
0.9989740407
0.9989740407
0.9989740407
0.9989740407
0.9989740407
0.9989740407
0.9989740407
0.9989740407
0.9989740407
0.9989740407
0.9989740407
0.9989740407
0.9989740407
0.9989740407
0.9989740407
0.9989740407
0.9989740407
0.9989740407
0.9989740407
0.9989740407
0.9989740407
0.9989740407
0.9989740407
0.9989740407
0.9989740407
0.9989740407
0.9989740407
0.9989740407
0.9989740407
0.9989740407
0.9989740407
0.9989740407
0.9989740407
0.9989740407
0.9989740407
0.9989740407
0.9989740407
0.9989740407
0.9989740407
0.9989740407
0.9989740407
0.9989740407
0.9989740407
0.9989740407
0.9989740407
0.9989740407
0.9989740407
0.9989740407
0.9989740407
0.9989740407
0.9989740407
0.9989740407
0.9989740407
0.9989740407
0.9989740407
0.9989740407
0.9989740407
0.9989740407
0.9989740407
0.9989740407
0.9989740407
0.9989740407
0.9989740407
0.9989740407
0.9989740407
0.9989740407
0.9989740407
0.9989740407
0.9989740407
0.9989740407
0.9989740407
0.9989740407
0.9989740407
0.9989740407
0.9989740407
0.9989740407
0.9989740407
0.9989740407
0.9989740407
0.9989740407
0.9989740407
0.9989740407
0.9989740407
0.9989740407
0.9989740407
0.9989740407
0.9989740407
0.9989740407
0.9989740407
0.9989740407
0.9989740407
0.9989740407
0.9989740407
0.9989740407
0.9989740407
0.9989740407
0.9989740407
0.9989740407
0.9989740407
0.9989740407
0.9989740407
0.9989740407
0.9989740407
0.9989740407
0.9989740407
0.9989740407
0.9989740407
0.9989740407
0.9989740407
0.9989740407
0.9989740407
0.9989740407
0.9989740407
0.9989740407
0.9989740407
0.9989740407
0.9989740407
0.9989740407
0.9989740407
0.9989740407
0.9989740407
0.9989740407
0.9989740407
0.9989740407
0.9989740407
0.9989740407
0.9989740407
0.9989740407
0.9989740407
0.9989740407
0.9989740407
0.9989740407
0.9989740407
0.9989740407
0.9989740407
0.9989740407
0.9989740407
0.9989740407
0.9989740407
0.9989740407
0.9989740407
0.9989740407
0.9989740407
0.9989740407
0.9989740407
0.9989740407
0.9989740407
0.9989740407
0.9989740407
0.9989740407
0.9989740407
0.9989740407
0.9989740407
0.9989740407
0.9989740407
0.9989740407
0.9989740407
0.9989740407
0.9989740407
0.9989740407
0.9989740407
0.9989740407
0.9989740407
0.9989740407
0.9989740407
0.9989740407
0.9989740407
0.9989740407
0.9989740407
0.9989740407
0.9989740407
0.9989740407
0.9989740407
0.9989740407
0.9989740407
0.9989740407
0.9989740407
0.9989740407
0.9989740407
0.9989740407
0.9989740407
0.9989740407
0.9989740407
0.9989740407
0.9989740407
0.9989740407
0.9989740407
0.9989740406
0.9989740406
0.9989740406
0.9989740405
0.9989740404
0.9989740402
0.9989740399
0.9989740393
0.9989740384
0.9989740367
0.998974034
0.9989740294
0.9989740217
0.9989740091
0.9989739884
0.9989739548
0.9989739006
0.9989738138
0.9989736761
0.9989734592
0.9989731204
0.9989725955
0.9989717891
0.9989705612
0.9989687078
0.9989659353
0.9989618265
0.9989557948
0.9989470257
0.9989344037
0.9989164209
0.9988910686
0.9988557107
0.998806943
0.9987404429
0.9986508201
0.9985314804
0.9983745212
0.9981706787
0.9979093499
0.9975787094
0.9971659387
0.9966575745
0.9960399716
0.9952998606
0.9944249645
0.9934046259
0.9922303861
0.9908964605
0.989400056
0.9877414994
0.9859241602
0.9839541806
0.9818400456
0.9795920436
0.9772216759
0.9747410732
0.9721624684
0.9694977591
0.9667581788
0.963954077
0.9610947984
0.9581886436
0.9552428909
0.9522638565
0.9492569783
0.9462269089
0.9431776061
0.9401123562
0.9370350982
0.9339478933
0.9308520831
0.9277487439
0.924638689
0.921523203
0.9184041771
0.9152834574
0.9121619832
0.9090405407
0.9059197919
0.9028003343
0.8996827175
0.8965674426
0.8934549682
0.8903457146
0.8872400682
0.8841383838
0.8810409878
0.8779481802
0.874860236
0.8717774071
0.8686999223
0.8656279883
0.8625617899
0.8595014924
0.8564472436
0.8533991802
0.8503574382
0.847322166
0.8442935149
0.8412716085
0.8382565443
0.8352484148
0.8322473056
0.8292532951
0.8262664553
0.8232868521
0.8203145463
0.8173495933
0.814392044
0.8114419449
0.8084993383
0.8055642631
0.8026367543
0.7997168439
0.7968045608
0.7938999311
0.7910029783
0.7881137233
0.785232185
0.7823583799
0.7794923225
0.7766340256
0.7737835002
0.7709407556
0.7681057994
0.7652786382
0.7624592766
0.7596477186
0.7568439664
0.7540480214
0.7512598838
0.7484795526
0.7457070262
0.7429423018
0.7401853757
0.7374362435
0.7346948999
0.7319613388
0.7292355534
0.7265175363
0.7238072794
0.7211047737
0.7184100099
0.715722978
0.7130436674
0.7103720669
0.707708165
0.7050519494
0.7024034077
0.6997625268
0.6971292933
0.6945036934
0.6918857128
0.6892753371
0.6866725515
0.6840773408
0.6814896897
0.6789095826
0.6763370037
0.673771937
0.6712143664
0.6686642757
0.6661216485
0.6635864685
0.661058719
0.6585383838
0.6560254463
0.6535198899
0.6510216983
0.6485308549
0.6460473436
0.6435711479
0.6411022517
0.638640639
0.636186294
0.6337392009
0.6312993443
0.6288667089
0.6264412798
0.6240230423
0.6216119816
0.6192080831
0.6168113321
0.6144217141
0.6120392151
0.6096638224
0.6072955256
0.6049343177
0.6025801958
0.6002331613
0.5978932198
0.5955603805
0.5932346557
0.5909160607
0.5886046154
0.5863003465
0.5840032902
0.5817134842
0.579430912
0.5771555738
0.5748874825
0.5726265701
0.5703729105
0.5681265397
0.5658872824
0.5636553251
0.5614308312
0.5592133415
0.5570031202
0.5548006442
0.5526051629
0.5504167181
0.5482362962
0.5460632751
0.5438969088
0.5417384406
0.539588101
0.5374443672
0.5353077494
0.5331796266
0.5310588882
0.5289445776
0.5268381481
0.5247404297
0.5226496252
0.5205653212
0.5184897446
0.5164229373
0.5143626647
0.5123092463
0.5102653715
0.5082303003
0.506201425
0.5041798566
0.5021687557
0.5001661511
0.4981694165
0.4961806179
0.4942026711
0.4922334651
0.490270035
0.4883148714
0.486371274
0.4844364498
0.4825065355
0.4805861868
0.4786769593
0.4767757482
0.474879902
0.4729951188
0.4711201762
0.4692511441
0.4673919404
0.4655427539
0.4637019743
0.461866469
0.4600438436
0.4582313073
0.4564233569
0.4546285109
0.4528446917
0.4510692926
0.4493065465
0.4475555205
0.4458175555
0.4440939879
0.4423879229
0.4407035147
0.4390464154
0.4374235493
0.4358444339
0.4343212238
0.4328694648
0.4315079468
0.4302579961
0.4291421736
0.4281808034
0.4273886555
0.4267702201
0.4263175087
0.4260103333
0.4258196125
0.425713761
0.4256632329
0.4256448456
0.4256412313
0.4256449388
0.4256598203
0.4256917481
0.4257332378
0.4257633413
0.4257846559
0.4258028333
0.4258190767
0.4258334312
0.425845829
0.4258562573
0.4258649118
0.4258721118
0.4258782839
0.4258837662
0.4258887596
0.4258932133
0.4258969411
0.4258997794
0.4259017298
0.4259029554
0.4259036578
0.4259039979
0.4259040995
0.4259042288
0.4259051529
0.4259075262
0.425909237
0.42590939
0.4259089566
0.4259089159
0.4259094337
0.4259106565
0.4259112405
0.4259107784
0.425910689
0.4259106802
0.425910954
0.4259111444
0.4259103471
0.4259102246
0.4259101292
0.425909564
0.4259093516
0.425909106
0.4259087894
0.4259084205
0.4259080594
0.4259077515
0.4259074066
0.4259070063
0.4259066407
0.4259062121
0.4259057337
0.4259052527
0.4259047917
0.4259043339
0.4259038715
0.4259033707
0.425902837
0.4259022633
0.4259016467
0.4259010223
0.4259004297
0.425899838
0.4258992399
0.4258986083
0.4258980717
0.4258975798
0.4258970991
0.4258966223
0.4258961196
0.4258955781
0.4258949925
0.4258944316
0.4258938942
0.4258933404
0.4258927441
0.4258921549
0.425891629
0.4258911177
0.4258905876
0.4258900469
0.4258895264
0.4258889898
0.4258884379
0.4258879094
0.4258873594
0.425886808
0.4258862704
0.4258857181
0.4258851874
0.4258846553
0.425884128
0.4258836083
0.4258830646
0.4258824995
0.4258819476
0.4258813414
0.4258807375
0.4258801062
0.4258794776
0.4258788257
0.4258781806
0.4258775288
0.4258768916
0.4258762322
0.4258755913
0.4258749118
0.4258742484
0.4258735227
0.4258728139
0.4258720354
0.4258712701
0.4258704401
0.4258696224
0.4258687504
0.4258678906
0.4258669823
0.4258660879
0.4258651416
0.4258642126
0.4258632296
0.425862262
0.4258612023
0.4258601757
0.4258590564
0.4258579602
0.4258567558
0.4258555757
0.4258542963
0.4258530346
0.4258516887
0.4258503602
0.4258489614
0.4258475839
0.4258461322
0.4258447105
0.4258431896
0.4258417096
0.4258400914
0.4258385257
0.4258367767
0.4258350921
0.4258331764
0.4258313388
0.4258292193
0.4258271962
0.4258248251
0.4258225872
0.4258198936
0.4258174168
0.4258142616
0.4258115195
0.4258075783
0.4258045171
0.4257990187
0.4257954725
0.4257866033
0.4257820382
0.4257656734
0.4257585065
0.4257257296
0.4257117497
0.4256443418
0.4256133853
0.4254761955
0.4254057817
0.4251350605
0.4249793475
0.4244668849
0.4241394728
0.4232144342
0.4225651775
0.420979372
0.4197697587
0.417197175
0.4150868044
0.4111524761
0.4077183231
0.4020694462
0.3968818082
0.3893003881
0.3820611022
0.3725899381
0.3632906921
0.3523371272
0.3413399114
0.3296038002
0.3177139048
0.3066344635
0.2974817841
0.2901182042
0.284263274
0.279652386
0.2760544263
0.2732738213
0.2711460362
0.2695342422
0.2683259572
0.2674297888
0.2667723482
0.2662954192
0.2659534018
0.2657110221
0.265541342
0.2654240546
0.2653440501
0.2652902316
0.2652545566
0.2652312727
0.2652163195
0.2652068705
0.2652009841
0.265197347
0.2651950824
0.2651936114
0.2651925625
0.2651917062
0.2651909104
0.2651901171
0.2651892938
0.2651883904
0.2651873291
0.2651860568
0.2651845293
0.2651827236
0.2651806499
0.2651783576
0.2651760316
0.2651739698
0.2651721513
0.2651705427
0.2651691164
0.2651678506
0.2651667279
0.2651657332
0.2651648521
0.265164076
0.2651633944
0.2651627953
0.2651622651
0.2651617933
0.2651613727
0.2651610061
0.2651606888
0.2651604131
0.265160173
0.2651599593
0.2651597723
0.2651596239
0.2651595124
0.2651594228
0.2651593527
0.2651592732
0.2651592149
0.2651591788
0.2651591709
0.2651591697
0.265159156
0.2651591308
0.2651591141
0.2651591158
0.265159134
0.2651591373
0.2651591186
0.265159083
0.2651590621
0.2651590538
0.2651590541
0.2651590367
0.2651590014
0.2651589681
0.2651589498
0.2651589621
0.2651589861
0.2651589986
0.2651590008
0.2651590009
0.2651590158
0.2651590619
0.2651590991
0.2651591277
0.2651591444
0.2651591524
0.2651591747
0.2651592255
0.2651592608
0.265159284
0.2651592954
0.2651592991
0.2651593234
0.2651593743
0.2651594052
0.2651594221
0.2651594299
0.265159433
0.2651594625
0.2651595133
0.2651595447
0.2651595613
0.2651595707
0.2651595798
0.2651596155
0.2651596646
0.2651596964
0.2651597118
0.2651597191
0.2651597366
0.265159779
0.2651598091
0.2651598283
0.265159838
0.2651598492
0.2651598838
0.2651599232
0.2651599457
0.2651599505
0.2651599464
0.2651599684
0.26516002
0.2651600463
0.2651600549
0.2651600418
0.2651600342
0.2651600747
0.2651601384
0.2651601591
0.2651601516
0.2651600872
0.2651600789
0.2651601714
0.2651602785
0.265160301
0.2651602116
0.2651600539
0.2651600653
0.2651601825
0.2651602682
0.2651601551
0.2651596072
0.2651580833
0.265155908
0.2651490661
0.2651322293
0.265089599
0.2649788294
0.2647042293
0.2640045351
0.2622477478
0.2578748948
0.2472563735
0.2230567974
0.1775690985
0.1411659515
0.1286451025
0.1255847518
0.1249959896
0.1248934144
0.1248755438
0.1248724241
0.1248718793
0.1248717842
0.1248717675
0.1248717646
0.1248717641
0.1248717641
0.124871764
0.124871764
0.124871764
0.124871764
0.124871764
0.124871764
0.124871764
0.124871764
0.124871764
0.124871764
0.124871764
0.124871764
0.124871764
0.124871764
0.124871764
0.124871764
0.124871764
0.124871764
0.124871764
0.124871764
0.124871764
0.124871764
0.124871764
0.124871764
0.124871764
0.124871764
0.124871764
0.124871764
0.124871764
0.124871764
0.124871764
0.124871764
0.124871764
0.124871764
0.124871764
0.124871764
0.124871764
0.124871764
0.124871764
0.124871764
0.124871764
0.124871764
0.124871764
0.124871764
0.124871764
0.124871764
0.124871764
0.124871764
0.124871764
0.124871764
0.124871764
0.124871764
0.124871764
0.124871764
0.124871764
0.124871764
0.124871764
0.124871764
0.124871764
0.124871764
0.124871764
0.124871764
0.124871764
0.124871764
0.124871764
0.124871764
0.124871764
0.124871764
0.124871764
0.124871764
0.124871764
0.124871764
0.124871764
0.124871764
0.124871764
0.124871764
0.124871764
0.124871764
0.124871764
0.124871764
0.124871764
0.124871764
0.124871764
0.124871764
0.124871764
0.124871764
0.124871764
0.124871764
0.124871764
0.124871764
0.124871764
0.124871764
0.124871764
0.124871764
0.124871764
0.124871764
0.124871764
0.124871764
0.124871764
0.124871764
0.124871764
0.124871764
0.124871764
0.124871764
0.124871764
0.124871764
0.124871764
0.124871764
0.124871764
0.124871764
0.124871764
0.124871764
0.124871764
0.124871764
0.124871764
0.124871764
0.124871764
0.124871764
0.124871764
0.124871764
0.124871764
0.124871764
0.124871764
0.124871764
0.124871764
0.124871764
0.124871764
0.124871764
0.124871764
0.124871764
0.124871764
0.124871764
0.124871764
0.124871764
0.124871764
)
;

boundaryField
{
    sides
    {
        type            calculated;
        value           nonuniform List<scalar> 2(0.124871764 0.9989740407);
    }
    empty
    {
        type            empty;
    }
}


// ************************************************************************* //
