/*--------------------------------*- C++ -*----------------------------------*\
| =========                 |                                                 |
| \\      /  F ield         | OpenFOAM: The Open Source CFD Toolbox           |
|  \\    /   O peration     | Version:  v2012                                 |
|   \\  /    A nd           | Website:  www.openfoam.com                      |
|    \\/     M anipulation  |                                                 |
\*---------------------------------------------------------------------------*/
FoamFile
{
    version     2.0;
    format      ascii;
    class       volScalarField;
    location    "0.2";
    object      T;
}
// * * * * * * * * * * * * * * * * * * * * * * * * * * * * * * * * * * * * * //

dimensions      [0 0 0 1 0 0 0];


internalField   nonuniform List<scalar> 
1000
(
0.003487899
0.003487899
0.003487899
0.003487899
0.003487899
0.003487899
0.003487899
0.003487899
0.003487899
0.003487899
0.003487899
0.003487899
0.003487899
0.003487899
0.003487899
0.003487899
0.003487899
0.003487899
0.003487899
0.003487899
0.003487899
0.003487899
0.003487899
0.003487899
0.003487899
0.003487899
0.003487899
0.003487899
0.003487899
0.003487899
0.003487899
0.003487899
0.003487899
0.003487899
0.003487899
0.003487899
0.003487899
0.003487899
0.003487899
0.003487899
0.003487899
0.003487899
0.003487899
0.003487899
0.003487899
0.003487899
0.003487899
0.003487899
0.003487899
0.003487899
0.003487899
0.003487899
0.003487899
0.003487899
0.003487899
0.003487899
0.003487899
0.003487899
0.003487899
0.003487899
0.003487899
0.003487899
0.003487899
0.003487899
0.003487899
0.003487899
0.003487899
0.003487899
0.003487899
0.003487899
0.003487899
0.003487899
0.003487899
0.003487899
0.003487899
0.003487899
0.003487899
0.003487899
0.003487899
0.003487899
0.003487899
0.003487899
0.003487899
0.003487899
0.003487899
0.003487899
0.003487899
0.003487899
0.003487899
0.003487899
0.003487899
0.003487899
0.003487899
0.003487899
0.003487899
0.003487899
0.003487899
0.003487899
0.003487899
0.003487899
0.003487899
0.003487899
0.003487899
0.003487899
0.003487899
0.003487899
0.003487899
0.003487899
0.003487899
0.003487899
0.003487899
0.003487899
0.003487899
0.003487899
0.003487899
0.003487899
0.003487899
0.003487899
0.003487899
0.003487899
0.003487899
0.003487899
0.003487899
0.003487899
0.003487899
0.003487899
0.003487899
0.003487899
0.003487899
0.003487899
0.003487899
0.003487899
0.003487899
0.003487899
0.003487899
0.003487899
0.003487899
0.003487899
0.003487899
0.003487899
0.003487899
0.003487899
0.003487899
0.003487899
0.003487899
0.003487899
0.003487899
0.003487899
0.003487899
0.003487899
0.003487899
0.003487899
0.003487899
0.003487899
0.003487899
0.003487899
0.003487899
0.003487899
0.003487899
0.003487899
0.003487899
0.003487899
0.003487899
0.003487899
0.003487899
0.003487899
0.003487899
0.003487899
0.003487899
0.003487899
0.003487899
0.003487899
0.003487899
0.003487899
0.003487899
0.003487899
0.003487899
0.003487899
0.003487899
0.003487899
0.003487899
0.003487899
0.003487899
0.003487899
0.003487899
0.003487899
0.003487899
0.003487899
0.003487899
0.003487899
0.003487899
0.003487899
0.003487899
0.003487899
0.003487899
0.003487899
0.003487899
0.003487899
0.003487899
0.003487899
0.003487899
0.003487899
0.003487899
0.003487899
0.003487899
0.003487899
0.003487899
0.003487899
0.003487899
0.003487899
0.003487899
0.003487899
0.003487899
0.003487899
0.003487899
0.003487899
0.003487898999
0.003487898999
0.003487898998
0.003487898997
0.003487898995
0.003487898991
0.003487898984
0.003487898974
0.003487898956
0.003487898927
0.00348789888
0.003487898805
0.003487898684
0.003487898492
0.00348789819
0.003487897718
0.003487896987
0.003487895863
0.003487894152
0.003487891569
0.003487887706
0.003487881979
0.003487873573
0.00348786135
0.003487843756
0.003487818688
0.003487783344
0.003487734048
0.003487666049
0.003487573315
0.003487448323
0.003487281865
0.0034870629
0.003486778479
0.003486413768
0.003485952209
0.003485375824
0.003484665698
0.003483802612
0.003482767811
0.003481543853
0.003480115483
0.003478470437
0.00347660011
0.003474500018
0.003472169984
0.003469614061
0.003466840174
0.003463859537
0.003460685924
0.003457334848
0.003453822758
0.003450166304
0.003446381727
0.003442484394
0.003438488491
0.003434406845
0.003430250869
0.003426030582
0.003421754693
0.003417430705
0.003413065049
0.0034086632
0.003404229924
0.003399770422
0.003395287358
0.003390782808
0.003386258168
0.003381714658
0.003377154238
0.003372579433
0.003367992552
0.003363394989
0.003358787924
0.003354172326
0.003349549056
0.003344918893
0.003340282553
0.003335640691
0.003330993911
0.00332634277
0.003321687781
0.003317029419
0.003312368125
0.003307704304
0.003303038327
0.003298370538
0.003293701245
0.003289030729
0.003284359243
0.003279687017
0.003275014266
0.003270341192
0.003265667988
0.003260994897
0.003256322175
0.00325164998
0.003246978471
0.003242307791
0.003237638075
0.00323296945
0.003228302033
0.003223635935
0.003218971259
0.003214308102
0.003209646555
0.003204986703
0.003200328626
0.003195672399
0.003191018092
0.003186365773
0.003181715503
0.00317706734
0.003172421341
0.003167777558
0.003163136038
0.003158496829
0.003153859975
0.003149225515
0.003144593488
0.003139963932
0.003135336881
0.003130712366
0.00312609042
0.003121471069
0.003116854342
0.003112240264
0.003107628859
0.00310302015
0.003098414158
0.003093810902
0.003089210402
0.003084612674
0.003080017735
0.003075425601
0.003070836284
0.003066249798
0.003061666156
0.003057085367
0.003052507442
0.00304793239
0.00304336022
0.003038790938
0.003034224551
0.003029661066
0.003025100486
0.003020542817
0.003015988062
0.003011436225
0.003006887307
0.003002341311
0.002997798238
0.002993258089
0.002988720864
0.002984186564
0.002979655188
0.002975126735
0.002970601206
0.002966078598
0.002961558911
0.002957042143
0.002952528293
0.002948017359
0.002943509339
0.002939004233
0.002934502038
0.002930002754
0.002925506378
0.00292101291
0.002916522348
0.002912034692
0.002907549941
0.002903068095
0.002898589155
0.00289411312
0.002889639993
0.002885169774
0.002880702465
0.002876238066
0.002871776579
0.002867318006
0.00286286235
0.002858409622
0.002853959834
0.002849513012
0.002845069187
0.002840628399
0.002836190696
0.002831756131
0.002827324762
0.002822896657
0.002818471896
0.002814050591
0.002809632842
0.002805218679
0.002800808081
0.002796401139
0.002791997816
0.002787598097
0.00278320223
0.00277881012
0.002774421602
0.002770037355
0.002765657145
0.002761280258
0.002756908057
0.002752540491
0.002748175979
0.002743816086
0.002739462005
0.002735111349
0.002730764189
0.002726423757
0.002722088305
0.002717755
0.002713427569
0.002709106963
0.002704789665
0.002700475469
0.002696169118
0.00269186962
0.002687571984
0.002683279134
0.002678995955
0.002674719355
0.002670443755
0.002666174989
0.00266191759
0.002657666454
0.002653415607
0.00264917415
0.002644945365
0.002640721744
0.002636498302
0.002632286471
0.002628088686
0.002623895826
0.002619703208
0.002615524239
0.002611361165
0.002607200473
0.002603039912
0.00259890097
0.002594767525
0.002590638894
0.002586518414
0.002582416859
0.00257831231
0.002574220874
0.002570148353
0.00256607533
0.002562008051
0.002557958669
0.002553926534
0.002549892812
0.002545872755
0.002541876695
0.002537885628
0.00253391188
0.002529957692
0.002526022952
0.002522112833
0.002518232928
0.002514393495
0.002510607134
0.002506890758
0.002503266234
0.002499762475
0.002496415817
0.002493270845
0.002490378479
0.002487792386
0.002485562368
0.002483723911
0.002482288997
0.00248124049
0.002480529579
0.002480091064
0.002479847705
0.002479734194
0.002479692612
0.002479687788
0.002479697679
0.002479733954
0.002479809956
0.002479907152
0.002479977467
0.002480028114
0.002480071553
0.002480110338
0.002480144771
0.002480174717
0.002480200282
0.002480221767
0.002480239957
0.002480255701
0.002480269842
0.002480282788
0.002480294516
0.002480304588
0.002480312725
0.002480318724
0.002480323093
0.002480326102
0.002480328233
0.0024803298
0.00248033148
0.002480335105
0.002480342248
0.002480346952
0.002480349199
0.002480349732
0.002480350961
0.002480353745
0.00248035803
0.002480361723
0.002480362331
0.002480363429
0.002480364827
0.002480366966
0.00248036957
0.002480369658
0.002480370765
0.002480372699
0.002480373356
0.002480374468
0.002480375762
0.002480376868
0.002480377948
0.002480379142
0.002480380457
0.002480381634
0.002480382815
0.002480384099
0.002480385361
0.002480386663
0.002480387949
0.002480389062
0.002480390058
0.002480390895
0.002480391666
0.002480392466
0.002480393308
0.002480394228
0.002480395325
0.002480396571
0.002480397923
0.00248039914
0.002480400241
0.002480401442
0.002480402729
0.002480404089
0.002480405512
0.002480406958
0.0024804084
0.002480409851
0.002480411402
0.002480413036
0.00248041473
0.002480416398
0.002480418191
0.002480420118
0.002480422125
0.002480424152
0.002480426224
0.00248042835
0.00248043051
0.002480432745
0.002480435072
0.002480437463
0.002480439949
0.002480442512
0.002480445134
0.002480447819
0.002480450557
0.002480453365
0.002480456248
0.002480459193
0.00248046226
0.002480465465
0.002480468749
0.002480472169
0.002480475689
0.002480479302
0.002480482951
0.002480486634
0.00248049033
0.002480494043
0.002480497762
0.00248050155
0.0024805054
0.002480509396
0.002480513503
0.002480517814
0.002480522265
0.002480526927
0.002480531719
0.002480536691
0.002480541769
0.002480546998
0.002480552313
0.002480557765
0.002480563303
0.002480568998
0.002480574796
0.002480580763
0.002480586831
0.002480593129
0.002480599579
0.002480606299
0.002480613188
0.002480620364
0.002480627715
0.002480635325
0.002480643079
0.002480651037
0.002480659104
0.002480667343
0.002480675679
0.002480684216
0.002480692881
0.002480701836
0.002480710983
0.002480720541
0.002480730371
0.002480740743
0.002480751469
0.002480762871
0.002480774708
0.002480787359
0.002480800519
0.002480814661
0.002480829398
0.002480845403
0.002480862155
0.002480880792
0.002480900512
0.002480923592
0.002480948591
0.002480980524
0.002481016489
0.002481067835
0.002481128394
0.002481223485
0.00248133992
0.00248153211
0.00248177246
0.002482172313
0.002482675984
0.002483499375
0.002484535097
0.002486178628
0.002488233402
0.002491381739
0.002495284158
0.00250104552
0.002508116026
0.002518166697
0.002530368268
0.002547065812
0.002567103081
0.00259350566
0.002624794419
0.002664508452
0.002710922904
0.002767701236
0.002833010495
0.002910038365
0.00299702549
0.003095832311
0.003205026382
0.003323699601
0.003445076615
0.003551284228
0.003641338658
0.003716307085
0.00377757719
0.003826809261
0.003865745498
0.003896080044
0.003919377379
0.003937025923
0.003950218785
0.003959953776
0.003967046028
0.003972147815
0.003975771401
0.003978312186
0.003980070477
0.00398127089
0.00398207897
0.003982614973
0.00398296502
0.003983189956
0.003983332192
0.003983420878
0.003983475759
0.003983510038
0.003983532418
0.003983548462
0.003983561604
0.003983573845
0.003983586087
0.003983598836
0.003983612909
0.00398362924
0.00398364875
0.003983672121
0.003983699661
0.003983731241
0.003983766087
0.003983801407
0.003983832731
0.00398386037
0.003983884857
0.003983906646
0.003983926071
0.003983943362
0.003983958716
0.003983972339
0.003983984427
0.003983995166
0.003984004692
0.003984013127
0.003984020582
0.003984027184
0.003984033042
0.003984038283
0.003984042958
0.003984047036
0.003984050537
0.00398405356
0.003984056209
0.003984058553
0.003984060631
0.003984062275
0.00398406353
0.003984064564
0.00398406546
0.0039840664
0.003984067168
0.003984067688
0.003984068079
0.003984068499
0.003984069012
0.003984069607
0.003984070169
0.003984070589
0.003984071044
0.003984071626
0.003984072352
0.003984073182
0.003984074006
0.003984074677
0.003984075241
0.003984075748
0.003984076333
0.003984076868
0.003984077169
0.003984077326
0.003984077393
0.003984077526
0.003984077796
0.003984077996
0.003984078112
0.003984078162
0.003984078209
0.003984078355
0.003984078648
0.003984078897
0.003984079074
0.0039840792
0.003984079338
0.003984079604
0.00398407999
0.003984080305
0.003984080523
0.003984080672
0.003984080822
0.003984081115
0.003984081488
0.003984081757
0.003984081917
0.00398408201
0.003984082124
0.00398408239
0.003984082708
0.003984082934
0.003984083075
0.003984083191
0.003984083379
0.003984083699
0.003984083981
0.003984084177
0.003984084334
0.003984084528
0.003984084865
0.003984085211
0.003984085459
0.003984085585
0.00398408571
0.003984085996
0.00398408642
0.003984086738
0.003984086918
0.003984086913
0.003984087013
0.003984087394
0.003984087856
0.003984088095
0.003984088047
0.003984087823
0.003984087953
0.003984088656
0.003984089378
0.003984089431
0.003984088808
0.00398408808
0.003984088452
0.003984089352
0.003984089701
0.003984088988
0.003984085753
0.003984078265
0.003984066112
0.003984029699
0.003983939297
0.003983708051
0.003983113338
0.003981628061
0.003977844616
0.003968296632
0.003944203987
0.003883703654
0.003733927542
0.003410335081
0.003008091009
0.002836864972
0.002796791312
0.002791416311
0.002790510059
0.002790352352
0.002790324824
0.002790320017
0.002790319178
0.002790319031
0.002790319005
0.002790319001
0.002790319
0.002790319
0.002790319
0.002790319
0.002790319
0.002790319
0.002790319
0.002790319
0.002790319
0.002790319
0.002790319
0.002790319
0.002790319
0.002790319
0.002790319
0.002790319
0.002790319
0.002790319
0.002790319
0.002790319
0.002790319
0.002790319
0.002790319
0.002790319
0.002790319
0.002790319
0.002790319
0.002790319
0.002790319
0.002790319
0.002790319
0.002790319
0.002790319
0.002790319
0.002790319
0.002790319
0.002790319
0.002790319
0.002790319
0.002790319
0.002790319
0.002790319
0.002790319
0.002790319
0.002790319
0.002790319
0.002790319
0.002790319
0.002790319
0.002790319
0.002790319
0.002790319
0.002790319
0.002790319
0.002790319
0.002790319
0.002790319
0.002790319
0.002790319
0.002790319
0.002790319
0.002790319
0.002790319
0.002790319
0.002790319
0.002790319
0.002790319
0.002790319
0.002790319
0.002790319
0.002790319
0.002790319
0.002790319
0.002790319
0.002790319
0.002790319
0.002790319
0.002790319
0.002790319
0.002790319
0.002790319
0.002790319
0.002790319
0.002790319
0.002790319
0.002790319
0.002790319
0.002790319
0.002790319
0.002790319
0.002790319
0.002790319
0.002790319
0.002790319
0.002790319
0.002790319
0.002790319
0.002790319
0.002790319
0.002790319
0.002790319
0.002790319
0.002790319
0.002790319
0.002790319
0.002790319
0.002790319
0.002790319
0.002790319
0.002790319
0.002790319
0.002790319
0.002790319
0.002790319
0.002790319
0.002790319
0.002790319
0.002790319
0.002790319
0.002790319
0.002790319
0.002790319
0.002790319
0.002790319
0.002790319
0.002790319
0.002790319
0.002790319
0.002790319
0.002790319
0.002790319
0.002790319
0.002790319
0.002790319
0.002790319
0.002790319
)
;

boundaryField
{
    sides
    {
        type            zeroGradient;
    }
    empty
    {
        type            empty;
    }
}


// ************************************************************************* //
