/*--------------------------------*- C++ -*----------------------------------*\
| =========                 |                                                 |
| \\      /  F ield         | OpenFOAM: The Open Source CFD Toolbox           |
|  \\    /   O peration     | Version:  v2012                                 |
|   \\  /    A nd           | Website:  www.openfoam.com                      |
|    \\/     M anipulation  |                                                 |
\*---------------------------------------------------------------------------*/
FoamFile
{
    version     2.0;
    format      ascii;
    class       volVectorField;
    location    "0.2";
    object      U;
}
// * * * * * * * * * * * * * * * * * * * * * * * * * * * * * * * * * * * * * //

dimensions      [0 1 -1 0 0 0 0];


internalField   nonuniform List<vector> 
1000
(
(-1.986606485e-15 0 0)
(-1.349677351e-15 0 0)
(-4.876167105e-16 0 0)
(1.189052198e-14 0 0)
(1.021474785e-14 0 0)
(5.942181224e-15 0 0)
(6.50086613e-15 0 0)
(2.705390007e-15 0 0)
(9.237116526e-16 0 0)
(5.08098743e-15 0 0)
(-3.627237296e-15 0 0)
(-5.013387592e-15 0 0)
(-6.024673313e-15 0 0)
(-6.774363752e-15 0 0)
(-9.851842122e-15 0 0)
(-5.117755992e-15 0 0)
(-3.108336726e-15 0 0)
(-2.543268897e-15 0 0)
(3.675945771e-15 0 0)
(-1.123594753e-15 0 0)
(-1.659363182e-15 0 0)
(8.245728737e-16 0 0)
(-8.517953232e-15 0 0)
(2.194905268e-15 0 0)
(-5.843754877e-15 0 0)
(-1.714814646e-15 0 0)
(-4.078296045e-15 0 0)
(-7.467844645e-15 0 0)
(-2.677865415e-15 0 0)
(-8.818364336e-15 0 0)
(-9.072090002e-15 0 0)
(-6.686703657e-15 0 0)
(-9.141573725e-17 0 0)
(1.154380721e-15 0 0)
(7.862983284e-16 0 0)
(2.89385884e-15 0 0)
(6.621439159e-15 0 0)
(2.67596847e-15 0 0)
(-2.50234738e-15 0 0)
(1.699851132e-15 0 0)
(1.746874619e-15 0 0)
(-7.956648545e-17 0 0)
(-2.512442905e-15 0 0)
(-2.291019653e-15 0 0)
(-6.541080136e-15 0 0)
(-6.960955355e-15 0 0)
(-3.238241303e-15 0 0)
(1.113221826e-16 0 0)
(-2.448600416e-15 0 0)
(-5.95481855e-15 0 0)
(-2.286163677e-15 0 0)
(-1.025067277e-15 0 0)
(7.674734904e-16 0 0)
(2.465742452e-15 0 0)
(3.311481836e-15 0 0)
(-6.350902128e-16 0 0)
(-4.007090593e-15 0 0)
(4.944547888e-16 0 0)
(-8.321224676e-15 0 0)
(-6.943735348e-15 0 0)
(-5.25857246e-15 0 0)
(4.875113613e-16 0 0)
(4.00798687e-15 0 0)
(5.676241989e-15 0 0)
(4.740515351e-15 0 0)
(4.401290459e-15 0 0)
(4.087644055e-15 0 0)
(-1.978565171e-15 0 0)
(8.381776812e-16 0 0)
(1.425838367e-15 0 0)
(3.144612997e-15 0 0)
(-9.247867101e-16 0 0)
(-3.047274155e-15 0 0)
(-2.376832651e-15 0 0)
(3.746458617e-15 0 0)
(-5.14575001e-15 0 0)
(-5.420031088e-15 0 0)
(-1.001964356e-14 0 0)
(-1.412897678e-14 0 0)
(-3.663142e-15 0 0)
(-4.844299308e-15 0 0)
(-2.727414181e-15 0 0)
(-6.971043705e-15 0 0)
(-8.038595896e-15 0 0)
(-5.027322871e-16 0 0)
(-1.965028628e-15 0 0)
(-5.618303054e-15 0 0)
(-4.982571054e-15 0 0)
(-5.069346932e-15 0 0)
(-2.081764516e-15 0 0)
(-1.529503558e-15 0 0)
(-7.859169087e-15 0 0)
(-7.663874827e-15 0 0)
(-4.972111319e-15 0 0)
(-5.780071534e-15 0 0)
(-3.295604269e-15 0 0)
(-4.378495082e-15 0 0)
(2.637180438e-15 0 0)
(1.859797184e-15 0 0)
(2.151626022e-15 0 0)
(2.699408586e-15 0 0)
(-5.565005887e-15 0 0)
(2.808793421e-15 0 0)
(5.145424097e-16 0 0)
(3.035675021e-15 0 0)
(5.219671979e-15 0 0)
(1.00445414e-14 0 0)
(3.1725946e-15 0 0)
(5.152533217e-15 0 0)
(9.188095331e-15 0 0)
(8.346556502e-15 0 0)
(4.841386679e-15 0 0)
(7.737685565e-15 0 0)
(9.598449452e-15 0 0)
(7.482086079e-15 0 0)
(1.075184281e-14 0 0)
(1.089170803e-14 0 0)
(6.620029871e-15 0 0)
(4.063566984e-15 0 0)
(4.280305118e-15 0 0)
(5.622890363e-15 0 0)
(-3.47869431e-15 0 0)
(5.099852075e-15 0 0)
(4.630537726e-16 0 0)
(3.29054439e-15 0 0)
(1.646565474e-15 0 0)
(-4.358256214e-15 0 0)
(-1.099189532e-14 0 0)
(-1.515744627e-14 0 0)
(-9.336684966e-15 0 0)
(-3.410788207e-15 0 0)
(-8.376320598e-15 0 0)
(-4.145975118e-15 0 0)
(-3.755552384e-15 0 0)
(-4.88010168e-15 0 0)
(-3.614338786e-15 0 0)
(-5.191914851e-15 0 0)
(-5.871881742e-15 0 0)
(-5.969579001e-15 0 0)
(-6.535693513e-15 0 0)
(2.887911623e-16 0 0)
(-2.212291703e-15 0 0)
(-3.014556486e-15 0 0)
(-6.889489826e-15 0 0)
(-1.442743588e-14 0 0)
(-1.151680271e-14 0 0)
(-8.174074847e-15 0 0)
(-4.334916585e-15 0 0)
(-6.427300708e-15 0 0)
(-6.659968547e-15 0 0)
(-1.013411279e-14 0 0)
(-4.025435841e-15 0 0)
(-2.202550157e-15 0 0)
(1.280306397e-15 0 0)
(-5.298868336e-15 0 0)
(3.204431642e-15 0 0)
(2.426736375e-15 0 0)
(1.047059989e-14 0 0)
(7.175162986e-15 0 0)
(1.017207274e-14 0 0)
(1.375444679e-15 0 0)
(-1.977881655e-15 0 0)
(-5.353926022e-15 0 0)
(-5.213085957e-15 0 0)
(5.163844871e-16 0 0)
(2.297876961e-16 0 0)
(6.374411357e-15 0 0)
(2.904554281e-15 0 0)
(3.907742668e-15 0 0)
(3.638459243e-15 0 0)
(-5.227289322e-15 0 0)
(-1.399567486e-15 0 0)
(-7.714585342e-15 0 0)
(9.068888574e-16 0 0)
(-5.483138292e-15 0 0)
(-6.456589634e-15 0 0)
(-1.396021062e-15 0 0)
(5.517708975e-16 0 0)
(-6.547763621e-15 0 0)
(-2.029960399e-15 0 0)
(-2.654801133e-15 0 0)
(-3.683962682e-15 0 0)
(-7.223386959e-15 0 0)
(-5.671152501e-16 0 0)
(6.386935399e-18 0 0)
(9.030736352e-16 0 0)
(8.507155493e-15 0 0)
(4.587270878e-15 0 0)
(7.900060429e-15 0 0)
(6.790168129e-15 0 0)
(1.301917658e-15 0 0)
(1.057215163e-14 0 0)
(8.575705547e-15 0 0)
(3.243089341e-15 0 0)
(-1.719395006e-15 0 0)
(-5.044767976e-15 0 0)
(-1.072214025e-15 0 0)
(-2.925251336e-15 0 0)
(3.872219029e-15 0 0)
(8.322997102e-15 0 0)
(1.794690835e-14 0 0)
(4.308133848e-14 0 0)
(9.644512343e-14 0 0)
(1.950377857e-13 0 0)
(3.831512757e-13 0 0)
(7.42845375e-13 0 0)
(1.397721055e-12 0 0)
(2.603354099e-12 0 0)
(4.812023958e-12 0 0)
(8.841748952e-12 0 0)
(1.612686092e-11 0 0)
(2.92412639e-11 0 0)
(5.267897927e-11 0 0)
(9.432638915e-11 0 0)
(1.678459795e-10 0 0)
(2.968145107e-10 0 0)
(5.215824639e-10 0 0)
(9.107338167e-10 0 0)
(1.580023077e-09 0 0)
(2.723359701e-09 0 0)
(4.66319681e-09 0 0)
(7.931650225e-09 0 0)
(1.340006194e-08 0 0)
(2.248408549e-08 0 0)
(3.746527773e-08 0 0)
(6.199069733e-08 0 0)
(1.018414898e-07 0 0)
(1.661034867e-07 0 0)
(2.689316612e-07 0 0)
(4.321809948e-07 0 0)
(6.892857123e-07 0 0)
(1.090912416e-06 0 0)
(1.713098167e-06 0 0)
(2.668815909e-06 0 0)
(4.12418907e-06 0 0)
(6.320899113e-06 0 0)
(9.606679287e-06 0 0)
(1.447613345e-05 0 0)
(2.162440887e-05 0 0)
(3.201640706e-05 0 0)
(4.697412816e-05 0 0)
(6.828427184e-05 0 0)
(9.832720035e-05 0 0)
(0.0001402266407 0 0)
(0.000198016929 0 0)
(0.0002768211259 0 0)
(0.0003830290512 0 0)
(0.0005244594986 0 0)
(0.000710486182 0 0)
(0.0009521031812 0 0)
(0.001261903886 0 0)
(0.001653948838 0 0)
(0.002143503387 0 0)
(0.002746636213 0 0)
(0.003479684107 0 0)
(0.00435860564 0 0)
(0.005398264121 0 0)
(0.006611695527 0 0)
(0.008009426755 0 0)
(0.009598911059 0 0)
(0.01138413947 0 0)
(0.01336546992 0 0)
(0.01553969168 0 0)
(0.01790031538 0 0)
(0.02043805295 0 0)
(0.02314143161 0 0)
(0.02599747477 0 0)
(0.02899238242 0 0)
(0.0321121525 0 0)
(0.03534310129 0 0)
(0.03867226016 0 0)
(0.0420876446 0 0)
(0.04557840656 0 0)
(0.04913488998 0 0)
(0.05274861387 0 0)
(0.05641220724 0 0)
(0.0601193161 0 0)
(0.06386449901 0 0)
(0.06764311889 0 0)
(0.07145105922 0 0)
(0.07528426994 0 0)
(0.07913987749 0 0)
(0.08301632458 0 0)
(0.08691254098 0 0)
(0.09082751778 0 0)
(0.09475991143 0 0)
(0.09870687442 0 0)
(0.102666946 0 0)
(0.1066388818 0 0)
(0.1106217369 0 0)
(0.1146147064 0 0)
(0.1186170651 0 0)
(0.1226281562 0 0)
(0.1266473792 0 0)
(0.1306741821 0 0)
(0.1347080566 0 0)
(0.1387485336 0 0)
(0.1427951801 0 0)
(0.1468475955 0 0)
(0.1509054096 0 0)
(0.1549682807 0 0)
(0.1590358944 0 0)
(0.1631079631 0 0)
(0.1671842253 0 0)
(0.1712644446 0 0)
(0.175348408 0 0)
(0.1794359216 0 0)
(0.1835268033 0 0)
(0.1876208727 0 0)
(0.191717935 0 0)
(0.1958177921 0 0)
(0.1999202765 0 0)
(0.2040252446 0 0)
(0.2081325642 0 0)
(0.2122421125 0 0)
(0.216353775 0 0)
(0.2204674449 0 0)
(0.2245830221 0 0)
(0.2287004132 0 0)
(0.2328195307 0 0)
(0.2369402924 0 0)
(0.2410626213 0 0)
(0.2451864454 0 0)
(0.249311697 0 0)
(0.2534383123 0 0)
(0.2575662318 0 0)
(0.2616953993 0 0)
(0.2658257619 0 0)
(0.26995727 0 0)
(0.2740898771 0 0)
(0.2782235389 0 0)
(0.2823582143 0 0)
(0.286493864 0 0)
(0.2906304515 0 0)
(0.2947679421 0 0)
(0.2989063032 0 0)
(0.3030455041 0 0)
(0.3071855158 0 0)
(0.311326311 0 0)
(0.3154678642 0 0)
(0.319610151 0 0)
(0.3237531489 0 0)
(0.3278968365 0 0)
(0.3320411936 0 0)
(0.3361862015 0 0)
(0.3403318426 0 0)
(0.3444781003 0 0)
(0.3486249593 0 0)
(0.3527724052 0 0)
(0.3569204248 0 0)
(0.3610690057 0 0)
(0.3652181364 0 0)
(0.3693678067 0 0)
(0.3735180068 0 0)
(0.3776687281 0 0)
(0.3818199625 0 0)
(0.3859717032 0 0)
(0.3901239437 0 0)
(0.3942766785 0 0)
(0.3984299027 0 0)
(0.4025836122 0 0)
(0.4067378035 0 0)
(0.4108924737 0 0)
(0.4150476206 0 0)
(0.4192032425 0 0)
(0.4233593382 0 0)
(0.4275159071 0 0)
(0.4316729489 0 0)
(0.435830464 0 0)
(0.4399884531 0 0)
(0.444146917 0 0)
(0.4483058573 0 0)
(0.4524652755 0 0)
(0.4566251734 0 0)
(0.4607855533 0 0)
(0.4649464172 0 0)
(0.4691077676 0 0)
(0.473269607 0 0)
(0.4774319378 0 0)
(0.4815947628 0 0)
(0.4857580845 0 0)
(0.4899219055 0 0)
(0.4940862284 0 0)
(0.4982510555 0 0)
(0.5024163893 0 0)
(0.5065822318 0 0)
(0.5107485851 0 0)
(0.5149154506 0 0)
(0.5190828299 0 0)
(0.5232507238 0 0)
(0.5274191329 0 0)
(0.5315880576 0 0)
(0.535757498 0 0)
(0.5399274542 0 0)
(0.5440979264 0 0)
(0.5482689144 0 0)
(0.5524404168 0 0)
(0.5566124299 0 0)
(0.5607849458 0 0)
(0.5649579507 0 0)
(0.5691314235 0 0)
(0.5733053354 0 0)
(0.5774796502 0 0)
(0.5816543247 0 0)
(0.5858293094 0 0)
(0.5900045482 0 0)
(0.5941799759 0 0)
(0.5983555146 0 0)
(0.6025310754 0 0)
(0.6067065864 0 0)
(0.6108819942 0 0)
(0.6150572946 0 0)
(0.6192324876 0 0)
(0.6234074572 0 0)
(0.6275822514 0 0)
(0.6317569166 0 0)
(0.6359311028 0 0)
(0.6401049227 0 0)
(0.6442786669 0 0)
(0.6484515931 0 0)
(0.6526237689 0 0)
(0.656796042 0 0)
(0.6609674133 0 0)
(0.6651372385 0 0)
(0.6693070289 0 0)
(0.6734764021 0 0)
(0.6776433534 0 0)
(0.6818093868 0 0)
(0.6859757918 0 0)
(0.690140036 0 0)
(0.6943017845 0 0)
(0.6984637265 0 0)
(0.7026253671 0 0)
(0.7067834452 0 0)
(0.7109396151 0 0)
(0.7150963494 0 0)
(0.7192511655 0 0)
(0.7234014213 0 0)
(0.7275504327 0 0)
(0.7317000085 0 0)
(0.7358455904 0 0)
(0.7399856976 0 0)
(0.7441251503 0 0)
(0.7482650099 0 0)
(0.7523986252 0 0)
(0.7565256471 0 0)
(0.760652679 0 0)
(0.76478004 0 0)
(0.7688992032 0 0)
(0.7730110255 0 0)
(0.7771227906 0 0)
(0.7812343929 0 0)
(0.7853368819 0 0)
(0.7894302041 0 0)
(0.7935228269 0 0)
(0.7976149329 0 0)
(0.8016987075 0 0)
(0.8057729381 0 0)
(0.8098429062 0 0)
(0.8139138407 0 0)
(0.8179782741 0 0)
(0.8220311629 0 0)
(0.8260786534 0 0)
(0.8301268008 0 0)
(0.8341671821 0 0)
(0.8381947304 0 0)
(0.84222169 0 0)
(0.8462439772 0 0)
(0.8502541844 0 0)
(0.8542588384 0 0)
(0.8582575855 0 0)
(0.8622439357 0 0)
(0.866220585 0 0)
(0.8701870842 0 0)
(0.8741397914 0 0)
(0.8780779419 0 0)
(0.8819996335 0 0)
(0.8859001888 0 0)
(0.8897732798 0 0)
(0.8936086706 0 0)
(0.8973940297 0 0)
(0.9011119535 0 0)
(0.9047404478 0 0)
(0.9082501823 0 0)
(0.9116046417 0 0)
(0.9147589768 0 0)
(0.9176617383 0 0)
(0.9202589376 0 0)
(0.9225005718 0 0)
(0.9243507539 0 0)
(0.9257966834 0 0)
(0.9268560001 0 0)
(0.9275748524 0 0)
(0.9280210377 0 0)
(0.9282683828 0 0)
(0.9283862161 0 0)
(0.9284287331 0 0)
(0.9284367008 0 0)
(0.9284277411 0 0)
(0.9283924331 0 0)
(0.9283166412 0 0)
(0.9282191962 0 0)
(0.9281484548 0 0)
(0.9280982962 0 0)
(0.92805539 0 0)
(0.9280170708 0 0)
(0.9279831188 0 0)
(0.9279537665 0 0)
(0.9279289537 0 0)
(0.927908301 0 0)
(0.9278909888 0 0)
(0.9278761143 0 0)
(0.9278628326 0 0)
(0.9278507768 0 0)
(0.9278399731 0 0)
(0.9278308887 0 0)
(0.9278238541 0 0)
(0.927818884 0 0)
(0.9278156468 0 0)
(0.9278135924 0 0)
(0.9278124492 0 0)
(0.9278118187 0 0)
(0.9278111538 0 0)
(0.9278085761 0 0)
(0.927802531 0 0)
(0.9277981728 0 0)
(0.9277974252 0 0)
(0.9277980242 0 0)
(0.9277977172 0 0)
(0.9277960268 0 0)
(0.9277926356 0 0)
(0.9277907809 0 0)
(0.927791366 0 0)
(0.9277912029 0 0)
(0.9277908146 0 0)
(0.927789664 0 0)
(0.9277887526 0 0)
(0.9277900483 0 0)
(0.9277898997 0 0)
(0.9277895271 0 0)
(0.9277902551 0 0)
(0.9277902671 0 0)
(0.9277902947 0 0)
(0.927790505 0 0)
(0.9277907998 0 0)
(0.9277910661 0 0)
(0.9277912082 0 0)
(0.9277914702 0 0)
(0.927791826 0 0)
(0.9277920931 0 0)
(0.92779248 0 0)
(0.9277929336 0 0)
(0.9277933891 0 0)
(0.927793858 0 0)
(0.9277943487 0 0)
(0.9277949005 0 0)
(0.9277955268 0 0)
(0.927796191 0 0)
(0.9277969081 0 0)
(0.9277976679 0 0)
(0.9277983975 0 0)
(0.9277990313 0 0)
(0.9277996269 0 0)
(0.927800278 0 0)
(0.9278010385 0 0)
(0.9278016044 0 0)
(0.9278020738 0 0)
(0.9278025068 0 0)
(0.9278029164 0 0)
(0.9278033583 0 0)
(0.9278038617 0 0)
(0.9278044319 0 0)
(0.9278049266 0 0)
(0.9278053597 0 0)
(0.9278057998 0 0)
(0.927806315 0 0)
(0.9278067941 0 0)
(0.9278071266 0 0)
(0.9278074212 0 0)
(0.9278077446 0 0)
(0.9278080732 0 0)
(0.9278083579 0 0)
(0.9278086634 0 0)
(0.927808971 0 0)
(0.9278092179 0 0)
(0.9278094789 0 0)
(0.9278097168 0 0)
(0.9278099059 0 0)
(0.9278100979 0 0)
(0.9278102277 0 0)
(0.9278103414 0 0)
(0.9278104252 0 0)
(0.9278104771 0 0)
(0.9278105509 0 0)
(0.9278106122 0 0)
(0.9278106211 0 0)
(0.9278106922 0 0)
(0.9278107267 0 0)
(0.9278107719 0 0)
(0.927810791 0 0)
(0.9278108381 0 0)
(0.9278108637 0 0)
(0.9278108999 0 0)
(0.9278109073 0 0)
(0.927810957 0 0)
(0.9278109519 0 0)
(0.9278109949 0 0)
(0.9278109706 0 0)
(0.9278110139 0 0)
(0.9278109751 0 0)
(0.9278110042 0 0)
(0.9278109576 0 0)
(0.9278109731 0 0)
(0.9278109222 0 0)
(0.9278109257 0 0)
(0.9278108678 0 0)
(0.9278108651 0 0)
(0.927810803 0 0)
(0.9278108026 0 0)
(0.9278107286 0 0)
(0.9278107149 0 0)
(0.9278106342 0 0)
(0.9278106686 0 0)
(0.9278105847 0 0)
(0.9278106051 0 0)
(0.9278105173 0 0)
(0.9278105503 0 0)
(0.9278104699 0 0)
(0.927810493 0 0)
(0.9278104227 0 0)
(0.9278104416 0 0)
(0.9278103798 0 0)
(0.9278103996 0 0)
(0.9278103367 0 0)
(0.9278103698 0 0)
(0.9278102953 0 0)
(0.9278103511 0 0)
(0.9278102574 0 0)
(0.9278103395 0 0)
(0.9278102219 0 0)
(0.9278103303 0 0)
(0.9278101853 0 0)
(0.9278103202 0 0)
(0.9278101433 0 0)
(0.9278103071 0 0)
(0.9278100892 0 0)
(0.927810307 0 0)
(0.9278100258 0 0)
(0.9278103588 0 0)
(0.927809947 0 0)
(0.9278105412 0 0)
(0.9278098235 0 0)
(0.9278110372 0 0)
(0.9278095897 0 0)
(0.9278122393 0 0)
(0.92780909 0 0)
(0.9278149481 0 0)
(0.9278079998 0 0)
(0.9278207185 0 0)
(0.9278057279 0 0)
(0.9278323283 0 0)
(0.9278012359 0 0)
(0.9278542467 0 0)
(0.9277927734 0 0)
(0.9278929737 0 0)
(0.9277777436 0 0)
(0.9279567216 0 0)
(0.9277527932 0 0)
(0.928053675 0 0)
(0.9277144485 0 0)
(0.9281882547 0 0)
(0.9276608203 0 0)
(0.9283556896 0 0)
(0.9275947932 0 0)
(0.9285374082 0 0)
(0.92752863 0 0)
(0.9287017784 0 0)
(0.9274885659 0 0)
(0.9288150556 0 0)
(0.9275163515 0 0)
(0.928859321 0 0)
(0.9276612803 0 0)
(0.9288397784 0 0)
(0.927965117 0 0)
(0.9287552198 0 0)
(0.9284445194 0 0)
(0.9286590298 0 0)
(0.928315988 0 0)
(0.9275672841 0 0)
(0.92757214 0 0)
(0.927659193 0 0)
(0.927726216 0 0)
(0.9277674576 0 0)
(0.9277951072 0 0)
(0.9278130116 0 0)
(0.9278242518 0 0)
(0.9278310971 0 0)
(0.9278351481 0 0)
(0.9278375101 0 0)
(0.9278388748 0 0)
(0.9278396444 0 0)
(0.9278400828 0 0)
(0.9278403457 0 0)
(0.9278405207 0 0)
(0.9278406543 0 0)
(0.9278407688 0 0)
(0.9278408726 0 0)
(0.9278409709 0 0)
(0.9278410634 0 0)
(0.9278411491 0 0)
(0.9278412326 0 0)
(0.927841314 0 0)
(0.9278413928 0 0)
(0.9278414658 0 0)
(0.9278415294 0 0)
(0.9278415947 0 0)
(0.9278416677 0 0)
(0.9278417536 0 0)
(0.9278418432 0 0)
(0.9278419337 0 0)
(0.9278420089 0 0)
(0.9278421066 0 0)
(0.9278422116 0 0)
(0.9278423138 0 0)
(0.9278424149 0 0)
(0.9278425033 0 0)
(0.9278425883 0 0)
(0.9278426688 0 0)
(0.9278427504 0 0)
(0.927842835 0 0)
(0.9278429241 0 0)
(0.9278430121 0 0)
(0.9278430923 0 0)
(0.9278431793 0 0)
(0.9278432809 0 0)
(0.9278433949 0 0)
(0.9278435106 0 0)
(0.9278436037 0 0)
(0.9278436905 0 0)
(0.9278437874 0 0)
(0.9278439 0 0)
(0.9278440238 0 0)
(0.9278441451 0 0)
(0.9278442234 0 0)
(0.9278442877 0 0)
(0.927844379 0 0)
(0.9278445075 0 0)
(0.9278446659 0 0)
(0.9278448074 0 0)
(0.9278448501 0 0)
(0.9278448963 0 0)
(0.9278450103 0 0)
(0.9278451774 0 0)
(0.9278453476 0 0)
(0.9278455197 0 0)
(0.9278454875 0 0)
(0.927845538 0 0)
(0.9278456616 0 0)
(0.9278458359 0 0)
(0.9278460197 0 0)
(0.9278460694 0 0)
(0.9278460534 0 0)
(0.9278461287 0 0)
(0.9278462813 0 0)
(0.9278465027 0 0)
(0.9278466509 0 0)
(0.9278467149 0 0)
(0.927846717 0 0)
(0.9278467985 0 0)
(0.9278469474 0 0)
(0.9278471358 0 0)
(0.9278473424 0 0)
(0.9278473252 0 0)
(0.9278473438 0 0)
(0.9278474413 0 0)
(0.9278476047 0 0)
(0.9278478049 0 0)
(0.9278479985 0 0)
(0.9278479695 0 0)
(0.9278480296 0 0)
(0.9278481516 0 0)
(0.9278483321 0 0)
(0.9278485516 0 0)
(0.9278487589 0 0)
(0.9278487385 0 0)
(0.9278488113 0 0)
(0.9278489494 0 0)
(0.9278491451 0 0)
(0.9278493822 0 0)
(0.9278495612 0 0)
(0.9278495528 0 0)
(0.9278496416 0 0)
(0.9278497964 0 0)
(0.9278499999 0 0)
(0.9278502418 0 0)
(0.9278503767 0 0)
(0.927850387 0 0)
(0.9278504847 0 0)
(0.9278506472 0 0)
(0.9278508494 0 0)
(0.9278510861 0 0)
(0.9278511623 0 0)
(0.9278512099 0 0)
(0.927851327 0 0)
(0.9278515002 0 0)
(0.9278517045 0 0)
(0.9278519105 0 0)
(0.9278519153 0 0)
(0.9278520058 0 0)
(0.9278521628 0 0)
(0.9278523647 0 0)
(0.9278526011 0 0)
(0.9278526332 0 0)
(0.9278526872 0 0)
(0.92785281 0 0)
(0.9278530022 0 0)
(0.9278532386 0 0)
(0.9278533698 0 0)
(0.9278533214 0 0)
(0.927853399 0 0)
(0.9278535551 0 0)
(0.9278538034 0 0)
(0.927854093 0 0)
(0.927854004 0 0)
(0.9278538798 0 0)
(0.9278539695 0 0)
(0.9278541648 0 0)
(0.9278545908 0 0)
(0.9278549077 0 0)
(0.9278545179 0 0)
(0.9278541426 0 0)
(0.9278541719 0 0)
(0.927854713 0 0)
(0.9278555502 0 0)
(0.9278554191 0 0)
(0.927854694 0 0)
(0.9278537105 0 0)
(0.9278526264 0 0)
(0.9278513424 0 0)
(0.9278487234 0 0)
(0.9278337624 0 0)
(0.9278026368 0 0)
(0.9277208426 0 0)
(0.9275137305 0 0)
(0.9270029432 0 0)
(0.9256811864 0 0)
(0.9223675156 0 0)
(0.9139785335 0 0)
(0.8928887474 0 0)
(0.8406419303 0 0)
(0.7153908182 0 0)
(0.4419741335 0 0)
(0.1435687809 0 0)
(0.03264734995 0 0)
(0.006162403531 0 0)
(0.001088644238 0 0)
(0.0001904163344 0 0)
(3.325909793e-05 0 0)
(5.808084751e-06 0 0)
(1.014249577e-06 0 0)
(1.771119861e-07 0 0)
(3.092789014e-08 0 0)
(5.400750034e-09 0 0)
(9.430959449e-10 0 0)
(1.646813703e-10 0 0)
(2.875713292e-11 0 0)
(5.015491638e-12 0 0)
(8.694305991e-13 0 0)
(1.495254468e-13 0 0)
(2.470622634e-14 0 0)
(4.349023219e-15 0 0)
(5.614733102e-15 0 0)
(-2.988657616e-15 0 0)
(3.03410594e-15 0 0)
(4.078038431e-15 0 0)
(4.964938914e-15 0 0)
(1.645430797e-15 0 0)
(6.100384881e-15 0 0)
(3.522153206e-15 0 0)
(6.997003427e-15 0 0)
(1.634943562e-15 0 0)
(-1.675957214e-15 0 0)
(-9.740669445e-15 0 0)
(-9.667316862e-15 0 0)
(-1.012396898e-14 0 0)
(-8.842425164e-15 0 0)
(-7.044594327e-15 0 0)
(-3.959547105e-15 0 0)
(-5.244385573e-15 0 0)
(2.371389192e-16 0 0)
(4.129963638e-15 0 0)
(6.510008201e-15 0 0)
(7.548119151e-15 0 0)
(1.497512803e-15 0 0)
(4.414269776e-15 0 0)
(3.488577185e-16 0 0)
(-3.535094889e-15 0 0)
(-5.497222326e-15 0 0)
(-6.020692846e-15 0 0)
(-1.396072966e-14 0 0)
(-8.360538427e-15 0 0)
(-8.053660264e-15 0 0)
(-5.269011876e-15 0 0)
(-6.138933792e-15 0 0)
(-4.728170388e-15 0 0)
(-2.823696817e-15 0 0)
(-2.536907041e-15 0 0)
(-3.521081553e-15 0 0)
(-9.252581139e-16 0 0)
(-4.330497129e-15 0 0)
(1.998694501e-15 0 0)
(2.071825107e-15 0 0)
(5.919162402e-15 0 0)
(4.71666475e-15 0 0)
(6.591799717e-15 0 0)
(6.641947105e-15 0 0)
(5.948652535e-15 0 0)
(6.083910114e-15 0 0)
(-2.294123976e-15 0 0)
(-8.700420943e-16 0 0)
(2.133055528e-15 0 0)
(6.406423383e-15 0 0)
(2.046026179e-15 0 0)
(7.012859164e-15 0 0)
(6.721731947e-15 0 0)
(7.869319973e-16 0 0)
(-2.982429784e-15 0 0)
(-4.76325085e-15 0 0)
(-5.495060117e-15 0 0)
(-3.821870594e-15 0 0)
(-1.784122574e-15 0 0)
(-1.090988337e-15 0 0)
(-1.892854619e-16 0 0)
(2.697239108e-15 0 0)
(-8.975577054e-17 0 0)
(-3.465688841e-15 0 0)
(7.383437144e-16 0 0)
(1.171355035e-15 0 0)
(3.566502357e-15 0 0)
(1.520683991e-15 0 0)
(1.133137527e-15 0 0)
(-1.329199e-15 0 0)
(-2.864998585e-15 0 0)
(1.771963127e-15 0 0)
(-1.22303272e-15 0 0)
(3.410863373e-15 0 0)
(8.454359335e-15 0 0)
(6.164384249e-15 0 0)
(5.222236557e-15 0 0)
(4.883436171e-15 0 0)
(7.884486026e-15 0 0)
(8.724051716e-15 0 0)
(7.58921207e-15 0 0)
(8.722746149e-15 0 0)
(6.577067404e-15 0 0)
(4.166561823e-15 0 0)
(5.534169348e-15 0 0)
(6.142853542e-15 0 0)
(8.645436288e-16 0 0)
(5.033466523e-15 0 0)
(6.102974381e-15 0 0)
(4.466751801e-15 0 0)
(3.513772818e-15 0 0)
(2.901155571e-15 0 0)
(-2.687118337e-15 0 0)
(2.9946985e-15 0 0)
(2.550040357e-15 0 0)
(5.281510631e-15 0 0)
(1.044592556e-14 0 0)
(8.656834295e-15 0 0)
(1.339615283e-14 0 0)
(8.395824841e-15 0 0)
(4.465407362e-15 0 0)
(-2.751720314e-15 0 0)
(5.594437656e-15 0 0)
(6.409158917e-15 0 0)
(7.863229922e-15 0 0)
(4.631704952e-15 0 0)
(3.747448681e-15 0 0)
(4.191414676e-15 0 0)
(2.795107796e-16 0 0)
(-4.437038998e-15 0 0)
(-1.784332531e-15 0 0)
(-5.003511415e-15 0 0)
(-4.298433572e-15 0 0)
(-2.04466014e-15 0 0)
(-2.421904603e-15 0 0)
(-4.219321088e-15 0 0)
(5.52403731e-16 0 0)
(2.011177508e-15 0 0)
(2.88839932e-16 0 0)
(2.727002374e-15 0 0)
(1.040240638e-15 0 0)
(7.41110241e-15 0 0)
(4.790874577e-15 0 0)
(4.402654876e-15 0 0)
(6.038538283e-15 0 0)
(-3.634731653e-16 0 0)
(-2.729374032e-15 0 0)
(-1.261278567e-15 0 0)
)
;

boundaryField
{
    sides
    {
        type            fixedValue;
        value           uniform (0 0 0);
    }
    empty
    {
        type            empty;
    }
}


// ************************************************************************* //
