/*--------------------------------*- C++ -*----------------------------------*\
| =========                 |                                                 |
| \\      /  F ield         | OpenFOAM: The Open Source CFD Toolbox           |
|  \\    /   O peration     | Version:  v2012                                 |
|   \\  /    A nd           | Website:  www.openfoam.com                      |
|    \\/     M anipulation  |                                                 |
\*---------------------------------------------------------------------------*/
FoamFile
{
    version     2.0;
    format      ascii;
    class       volScalarField;
    location    "0.2";
    object      p;
}
// * * * * * * * * * * * * * * * * * * * * * * * * * * * * * * * * * * * * * //

dimensions      [1 -1 -2 0 0 0 0];


internalField   nonuniform List<scalar> 
2000
(
1
1
1
1
1
1
1
1
1
1
1
1
1
1
1
1
1
1
1
1
1
1
1
1
1
1
1
1
1
1
1
1
1
1
1
1
1
1
1
1
1
1
1
1
1
1
1
1
1
1
1
1
1
1
1
1
1
1
1
1
1
1
1
1
1
1
1
1
1
1
1
1
1
1
1
1
1
1
1
1
1
1
1
1
1
1
1
1
1
1
1
1
1
1
1
1
1
1
1
1
1
1
1
1
1
1
1
1
1
1
1
1
1
1
1
1
1
1
1
1
1
1
1
1
1
1
1
1
1
1
1
1
1
1
1
1
1
1
1
1
1
1
1
1
1
1
1
1
1
1
1
1
1
1
1
1
1
1
1
1
1
1
1
1
1
1
1
1
1
1
1
1
1
1
1
1
1
1
1
1
1
1
1
1
1
1
1
1
1
1
1
1
1
1
1
1
1
1
1
1
1
1
1
1
1
1
1
1
1
1
1
1
1
1
1
1
1
1
1
1
1
1
1
1
1
1
1
1
1
1
1
1
1
1
1
1
1
1
1
1
1
1
1
1
1
1
1
1
1
1
1
1
1
1
1
1
1
1
1
1
1
1
1
1
1
1
1
1
1
1
1
1
1
1
1
1
1
1
1
1
1
1
1
1
1
1
1
1
1
1
1
1
1
1
1
1
1
1
1
1
1
1
1
1
1
1
1
1
1
1
1
1
1
1
1
1
1
1
1
1
1
1
1
1
1
1
1
1
1
1
1
1
1
1
1
1
1
1
1
1
1
1
1
1
1
1
1
1
1
1
1
1
1
1
1
1
1
1
1
1
1
1
1
1
1
1
1
1
1
1
1
1
1
1
1
1
1
1
1
1
1
1
1
1
1
1
1
1
1
1
1
1
1
1
1
1
1
1
1
1
1
1
1
1
1
1
1
1
1
1
1
1
1
1
1
1
1
1
1
1
1
1
1
1
1
1
1
1
1
1
1
1
1
1
1
1
1
1
1
1
1
1
1
1
1
1
1
1
1
1
1
1
1
1
1
1
1
1
1
1
1
0.9999999999
0.9999999999
0.9999999999
0.9999999998
0.9999999997
0.9999999995
0.9999999993
0.9999999988
0.9999999982
0.9999999973
0.9999999959
0.9999999937
0.9999999905
0.9999999857
0.9999999786
0.9999999682
0.9999999527
0.9999999301
0.9999998971
0.9999998493
0.9999997802
0.9999996811
0.9999995394
0.9999993378
0.9999990528
0.9999986516
0.9999980901
0.9999973085
0.9999962263
0.9999947363
0.9999926967
0.9999899205
0.9999861642
0.9999811122
0.9999743588
0.9999653874
0.999953545
0.9999380143
0.9999177811
0.9998915992
0.9998579534
0.9998150198
0.9997606283
0.9996922262
0.9996068477
0.999501092
0.9993711128
0.9992126228
0.9990209183
0.9987909234
0.9985172591
0.9981943358
0.9978164682
0.9973780106
0.9968735063
0.9962978451
0.9956464202
0.994915276
0.9941012364
0.9932020078
0.9922162468
0.9911435921
0.989984656
0.9887409787
0.9874149486
0.9860096964
0.9845289681
0.9829769883
0.9813583208
0.9796777333
0.9779400744
0.9761501651
0.9743127089
0.9724322214
0.9705129778
0.9685589785
0.9665739295
0.9645612352
0.9625240012
0.9604650443
0.9583869079
0.9562918801
0.954182014
0.9520591481
0.9499249267
0.9477808189
0.9456281367
0.9434680509
0.9413016065
0.9391297351
0.9369532665
0.9347729297
0.9325895871
0.9304038061
0.9282160523
0.9260267233
0.9238361639
0.9216446626
0.9194525595
0.9172604789
0.9150690429
0.9128786174
0.9106894203
0.9085016025
0.9063153157
0.9041307051
0.901947915
0.8997670837
0.8975883408
0.8954118078
0.8932375976
0.8910658156
0.88889656
0.8867299225
0.884565989
0.8824048397
0.8802465501
0.8780911909
0.8759388288
0.8737895265
0.8716433431
0.8695003346
0.8673605538
0.8652240509
0.8630908732
0.8609610658
0.858834671
0.8567117289
0.8545922766
0.8524763488
0.850363977
0.84825519
0.8461500138
0.8440484725
0.841950589
0.8398563871
0.8377658922
0.8356791333
0.8335961369
0.8315169223
0.8294415078
0.8273699109
0.8253021479
0.8232382343
0.8211781844
0.8191220117
0.817069729
0.8150213482
0.8129768803
0.8109363358
0.8088997242
0.8068670547
0.8048383357
0.8028135748
0.8007927792
0.7987759556
0.7967631101
0.7947542482
0.7927493751
0.7907484953
0.788751613
0.786758732
0.7847698556
0.7827849868
0.780804128
0.7788272816
0.7768544493
0.7748856327
0.772920833
0.7709600511
0.7690032876
0.7670505428
0.7651018168
0.7631571094
0.7612164202
0.7592797484
0.7573470932
0.7554184534
0.7534938277
0.7515732145
0.7496566122
0.7477440187
0.7458354321
0.74393085
0.74203027
0.7401336895
0.7382411057
0.7363525159
0.7344679169
0.7325873056
0.7307106787
0.7288380328
0.7269693643
0.7251046697
0.7232439451
0.7213871867
0.7195343906
0.7176855525
0.7158406685
0.7139997343
0.7121627454
0.7103296976
0.7085005862
0.7066754068
0.7048541546
0.703036825
0.7012234131
0.6994139141
0.6976083231
0.6958066351
0.6940088449
0.6922149476
0.690424938
0.6886388108
0.6868565608
0.6850781827
0.6833036711
0.6815330206
0.6797662258
0.6780032811
0.6762441811
0.6744889201
0.6727374926
0.6709898928
0.6692461152
0.6675061539
0.6657700033
0.6640376575
0.6623091107
0.6605843571
0.6588633908
0.6571462059
0.6554327964
0.6537231565
0.65201728
0.6503151611
0.6486167936
0.6469221716
0.6452312889
0.6435441395
0.6418607172
0.6401810159
0.6385050294
0.6368327516
0.6351641762
0.6334992971
0.631838108
0.6301806026
0.6285267748
0.6268766183
0.6252301266
0.6235872937
0.621948113
0.6203125784
0.6186806835
0.6170524219
0.6154277872
0.6138067731
0.6121893733
0.6105755812
0.6089653906
0.607358795
0.6057557881
0.6041563633
0.6025605142
0.6009682345
0.5993795177
0.5977943574
0.5962127471
0.5946346803
0.5930601506
0.5914891516
0.5899216768
0.5883577198
0.5867972741
0.5852403331
0.5836868906
0.58213694
0.5805904748
0.5790474887
0.5775079751
0.5759719277
0.5744393399
0.5729102054
0.5713845177
0.5698622703
0.5683434569
0.5668280711
0.5653161064
0.5638075563
0.5623024147
0.5608006749
0.5593023307
0.5578073756
0.5563158034
0.5548276075
0.5533427818
0.5518613198
0.5503832153
0.5489084618
0.5474370531
0.5459689829
0.5445042449
0.5430428328
0.5415847404
0.5401299615
0.5386784897
0.537230319
0.5357854431
0.5343438558
0.5329055511
0.5314705226
0.5300387643
0.52861027
0.5271850337
0.5257630492
0.5243443103
0.522928811
0.5215165452
0.5201075068
0.5187016897
0.5172990879
0.5158996952
0.5145035056
0.513110513
0.5117207116
0.5103340953
0.5089506582
0.5075703943
0.506193298
0.5048193633
0.5034485847
0.5020809566
0.5007164734
0.4993551299
0.4979969209
0.4966418412
0.4952898857
0.4939410497
0.4925953282
0.4912527164
0.4899132095
0.4885768029
0.4872434918
0.4859132716
0.4845861378
0.483262086
0.4819411122
0.4806232129
0.4793083856
0.4779966283
0.4766879395
0.4753823178
0.4740797613
0.4727802677
0.471483832
0.4701904488
0.4689001135
0.4676128208
0.4663285649
0.4650473371
0.4637691329
0.4624939469
0.4612217688
0.459952602
0.4586864484
0.457423289
0.4561631345
0.4549059923
0.4536518207
0.4524006335
0.4511524581
0.4499072397
0.4486649842
0.4474257592
0.4461894991
0.444956163
0.443725843
0.4424984912
0.4412740304
0.4400525397
0.4388340677
0.4376184983
0.436405831
0.4351961802
0.4339894375
0.4327855383
0.4315845985
0.4303866794
0.4291916371
0.4279994623
0.4268103244
0.4256240548
0.4244405678
0.4232600139
0.422082471
0.4209077853
0.4197358883
0.4185669712
0.4174008993
0.4162375943
0.4150771495
0.4139197212
0.4127651917
0.4116133561
0.4104643966
0.4093183231
0.4081750802
0.4070346467
0.4058972112
0.4047628506
0.4036311482
0.4025021057
0.4013759846
0.4002527634
0.3991324407
0.3980149348
0.3969005393
0.3957889073
0.3946796802
0.3935732947
0.3924698539
0.3913694904
0.3902718475
0.3891771818
0.3880854019
0.3869961755
0.3859093661
0.3848255054
0.3837450885
0.3826677562
0.3815927943
0.3805204946
0.3794509827
0.3783847674
0.3773209998
0.3762600504
0.3752026142
0.3741476038
0.3730951695
0.372045436
0.370998171
0.3699547527
0.3689144459
0.3678761225
0.3668403937
0.365807118
0.3647775939
0.3637510304
0.3627266996
0.3617057754
0.3606866378
0.3596700207
0.3586571689
0.3576476379
0.3566401233
0.355635534
0.3546330151
0.3536332514
0.352637301
0.3516442333
0.3506534546
0.3496648602
0.3486785009
0.3476959062
0.3467169886
0.3457397124
0.3447648513
0.3437923162
0.3428236234
0.3418582602
0.3408944153
0.3399328298
0.3389746146
0.338020347
0.3370674802
0.3361168473
0.3351694524
0.3342261977
0.3332842446
0.3323445787
0.3314085322
0.3304763978
0.3295454722
0.3286171035
0.3276932084
0.3267723601
0.3258531704
0.3249377707
0.3240271556
0.3231179754
0.3222132254
0.3213133736
0.3204160546
0.319523207
0.3186344116
0.3177499446
0.3168703224
0.3159961334
0.3151280017
0.314266723
0.3134132503
0.3125687844
0.311734744
0.3109129849
0.3101057922
0.3093161895
0.3085478588
0.3078054976
0.3070946581
0.3064220582
0.3057950725
0.3052217175
0.3047095031
0.3042649989
0.3038922307
0.3035923276
0.3033623474
0.3031959621
0.3030836413
0.3030143315
0.302976648
0.3029599794
0.3029554443
0.3029564194
0.3029634583
0.3029824124
0.3030156672
0.3030520867
0.3030762714
0.3030937641
0.3031079121
0.3031199402
0.3031303415
0.303139406
0.3031473323
0.3031542448
0.3031602088
0.3031652508
0.3031693954
0.3031726958
0.3031752478
0.3031771897
0.3031786825
0.3031798878
0.3031809439
0.3031819461
0.3031829471
0.303183975
0.3031850215
0.3031859781
0.3031867946
0.3031875047
0.3031881502
0.3031887582
0.3031893176
0.3031897979
0.3031901625
0.3031904268
0.3031905364
0.3031905066
0.3031905008
0.3031904938
0.3031904929
0.3031904901
0.3031904847
0.3031904724
0.3031904464
0.3031904077
0.3031903514
0.3031902693
0.3031901664
0.3031900416
0.3031898966
0.3031897376
0.3031895849
0.3031894288
0.3031892566
0.3031890523
0.3031888204
0.3031885694
0.303188303
0.3031880226
0.3031877245
0.3031874012
0.3031870746
0.3031867888
0.3031865286
0.3031862923
0.3031860734
0.3031858642
0.3031856589
0.3031854552
0.3031852505
0.303185043
0.3031848252
0.3031845984
0.3031843754
0.3031841765
0.3031839921
0.30318382
0.3031836557
0.303183494
0.3031833379
0.3031831854
0.30318304
0.3031829051
0.3031827826
0.3031826733
0.3031825771
0.3031824931
0.3031824193
0.3031823546
0.3031822986
0.3031822511
0.3031822124
0.3031821812
0.3031821546
0.3031821278
0.3031820982
0.3031820674
0.3031820404
0.3031820162
0.3031819973
0.3031819832
0.3031819731
0.3031819666
0.3031819632
0.3031819615
0.3031819596
0.3031819595
0.3031819608
0.3031819635
0.3031819675
0.3031819737
0.3031819837
0.3031819982
0.3031820179
0.3031820444
0.3031820783
0.3031820548
0.3031820599
0.3031820719
0.3031820936
0.3031821248
0.3031820918
0.3031820982
0.3031821124
0.3031821263
0.3031821218
0.3031821321
0.3031821527
0.3031821821
0.3031822009
0.3031821727
0.3031821861
0.3031822178
0.3031822622
0.3031822311
0.3031822354
0.3031822471
0.3031822692
0.3031823023
0.3031822788
0.3031822982
0.3031823423
0.3031824017
0.3031823333
0.30318235
0.3031823834
0.3031823702
0.3031823813
0.303182406
0.3031824471
0.3031825028
0.3031824377
0.3031824572
0.303182502
0.3031825666
0.3031825586
0.3031825149
0.3031825316
0.3031825804
0.3031825267
0.3031825545
0.3031826098
0.3031825998
0.3031826099
0.3031826328
0.3031826754
0.3031827339
0.303182645
0.3031826633
0.303182711
0.3031826582
0.303182677
0.3031827149
0.3031827048
0.303182709
0.30318272
0.30318274
0.3031827168
0.3031827329
0.3031827689
0.3031827324
0.3031827506
0.3031827898
0.3031827519
0.3031827727
0.3031828137
0.3031827788
0.3031827958
0.3031828269
0.3031828132
0.3031828226
0.3031828381
0.3031828446
0.3031828419
0.3031828554
0.3031828817
0.3031828471
0.3031828666
0.3031829132
0.3031828614
0.3031828821
0.3031829276
0.3031828829
0.3031828995
0.3031829322
0.303182925
0.3031829185
0.3031829236
0.303182939
0.3031829609
0.3031829513
0.3031829542
0.3031829629
0.3031829761
0.3031829642
0.3031829726
0.3031829891
0.3031829754
0.3031829863
0.3031830085
0.3031829853
0.3031829963
0.3031830186
0.3031830173
0.3031830136
0.3031830161
0.3031830229
0.3031830334
0.303183041
0.3031830311
0.3031830335
0.3031830411
0.3031830458
0.3031830376
0.3031830399
0.3031830411
0.3031830434
0.303183041
0.3031830427
0.3031830394
0.3031830411
0.3031830384
0.3031830415
0.303183037
0.3031830389
0.3031830366
0.3031830414
0.3031830385
0.3031830413
0.3031830411
0.3031830449
0.3031830452
0.303183048
0.3031830496
0.3031830528
0.3031830548
0.3031830587
0.3031830603
0.3031830651
0.3031830656
0.3031830711
0.3031830707
0.3031830769
0.303183076
0.3031830827
0.3031830817
0.3031830886
0.3031830876
0.3031830944
0.3031830935
0.3031831003
0.3031830997
0.3031831066
0.303183106
0.3031831134
0.3031831124
0.3031831207
0.303183119
0.303183128
0.3031831253
0.3031831345
0.3031831308
0.3031831395
0.3031831346
0.3031831422
0.3031831363
0.3031831427
0.3031831359
0.3031831416
0.3031831341
0.3031831397
0.3031831317
0.3031831379
0.3031831295
0.3031831367
0.3031831281
0.3031831364
0.3031831277
0.303183137
0.3031831285
0.3031831387
0.3031831306
0.3031831417
0.3031831341
0.3031831463
0.3031831395
0.3031831533
0.3031831472
0.303183163
0.303183157
0.3031831752
0.3031831685
0.3031831889
0.3031831805
0.3031832027
0.3031831918
0.3031832149
0.3031832007
0.3031832236
0.3031832057
0.3031832273
0.303183206
0.3031832259
0.3031832025
0.3031832212
0.3031831972
0.3031832164
0.3031831924
0.3031832136
0.3031831884
0.3031832129
0.3031831843
0.3031832136
0.3031831796
0.3031832166
0.3031831743
0.3031832249
0.3031831677
0.3031832428
0.3031831568
0.3031832774
0.303183135
0.3031833399
0.3031830888
0.303183451
0.3031829939
0.3031836456
0.3031828052
0.3031839819
0.3031824461
0.3031845587
0.3031817955
0.3031855406
0.3031806658
0.3031871842
0.3031787744
0.3031898663
0.3031757129
0.3031941057
0.3031709216
0.303200566
0.3031636915
0.3032100219
0.303153217
0.3032232559
0.3031387272
0.303240852
0.3031197288
0.3032628882
0.303096379
0.3032885751
0.3030699226
0.3033159255
0.3030430536
0.3033416328
0.3030199831
0.3033613397
0.3030059537
0.3033703637
0.3030061116
0.3033647722
0.3030238801
0.3033423654
0.3030595065
0.3033011696
0.3031181012
0.3032379318
0.3031789957
0.3031569561
0.3031342452
0.3031884398
0.3031889937
0.3031861717
0.3031857015
0.3031856017
0.3031855215
0.3031854561
0.303185405
0.3031853704
0.3031853476
0.3031853343
0.3031853319
0.3031853343
0.3031853393
0.3031853458
0.3031853525
0.3031853579
0.3031853611
0.3031853615
0.3031853598
0.3031853564
0.3031853516
0.3031853464
0.3031853417
0.303185342
0.3031853457
0.303185353
0.3031853623
0.303185372
0.3031853802
0.3031853863
0.3031853903
0.303185393
0.3031853971
0.3031854049
0.3031854159
0.3031854287
0.3031854424
0.3031854562
0.30318547
0.3031854839
0.3031854983
0.3031855135
0.3031855298
0.3031855467
0.3031855639
0.3031855804
0.3031855952
0.303185607
0.3031856148
0.3031856181
0.3031856169
0.3031856126
0.3031856049
0.3031855961
0.3031855897
0.3031855906
0.3031855965
0.3031856067
0.3031856184
0.3031856289
0.3031856353
0.3031856375
0.303185637
0.3031856384
0.3031856459
0.3031856597
0.3031856764
0.3031856935
0.3031857095
0.3031857247
0.3031857401
0.3031857566
0.3031857738
0.3031857913
0.3031858086
0.303185826
0.3031858437
0.3031858608
0.3031858779
0.303185888
0.3031858973
0.3031858926
0.3031858889
0.3031858799
0.3031858684
0.3031858617
0.3031858594
0.3031858613
0.3031858723
0.3031858895
0.3031859095
0.3031859254
0.3031859316
0.3031859334
0.3031859342
0.3031859364
0.3031859466
0.3031859656
0.3031859847
0.3031859994
0.303186012
0.303186025
0.3031860425
0.3031860629
0.3031860803
0.3031860964
0.3031861128
0.3031861325
0.3031861551
0.303186176
0.3031861953
0.3031862115
0.3031862228
0.3031862263
0.3031862189
0.3031862084
0.3031861983
0.3031861921
0.303186189
0.3031861914
0.3031862043
0.3031862266
0.3031862463
0.3031862637
0.3031862724
0.3031862711
0.3031862755
0.3031862821
0.3031862964
0.3031863194
0.3031863392
0.3031863552
0.3031863687
0.3031863861
0.3031864099
0.3031864287
0.3031864456
0.3031864613
0.3031864773
0.3031864978
0.3031865206
0.3031865417
0.303186561
0.3031865774
0.3031865898
0.3031865955
0.3031865912
0.3031865854
0.3031865723
0.3031865607
0.3031865571
0.3031865627
0.303186591
0.3031866114
0.3031866303
0.3031866453
0.303186655
0.3031866591
0.3031866596
0.3031866636
0.3031866839
0.3031867071
0.3031867265
0.3031867417
0.303186755
0.3031867718
0.3031867975
0.3031868196
0.3031868387
0.3031868546
0.3031868687
0.3031868891
0.3031869174
0.3031869421
0.3031869652
0.3031869845
0.3031869979
0.3031870043
0.3031870051
0.3031870014
0.3031869884
0.3031869725
0.3031869651
0.3031869789
0.3031870128
0.3031870377
0.3031870611
0.3031870799
0.3031870913
0.3031870964
0.3031870969
0.3031871016
0.3031871252
0.303187156
0.3031871786
0.3031871958
0.3031872108
0.3031872281
0.3031872565
0.3031872866
0.3031873115
0.3031873299
0.3031873446
0.3031873639
0.3031873977
0.3031874308
0.3031874615
0.3031874878
0.3031875081
0.3031875205
0.3031875253
0.3031875246
0.303187516
0.3031874999
0.3031874908
0.3031875032
0.3031875461
0.3031875795
0.3031876112
0.3031876371
0.3031876542
0.3031876622
0.3031876639
0.3031876651
0.3031876889
0.3031877285
0.3031877567
0.3031877785
0.3031877964
0.3031878137
0.3031878444
0.3031878831
0.303187912
0.303187932
0.3031879468
0.3031879632
0.3031879972
0.3031880399
0.3031880769
0.3031881096
0.3031881355
0.3031881517
0.3031881572
0.3031881573
0.3031881523
0.3031881385
0.3031881251
0.3031881323
0.3031881756
0.3031882262
0.3031882673
0.3031883041
0.3031883277
0.3031883354
0.3031883317
0.3031883239
0.3031883512
0.303188409
0.3031884468
0.3031884753
0.3031884933
0.3031885072
0.30318854
0.3031885939
0.3031886335
0.3031886615
0.3031886757
0.3031886819
0.3031887131
0.303188777
0.3031888252
0.3031888667
0.3031888924
0.3031889044
0.3031889088
0.3031889171
0.3031889362
0.3031889441
0.3031889389
0.3031889145
0.3031889231
0.3031890065
0.303189107
0.3031891621
0.3031891922
0.3031891914
0.3031891316
0.303189072
0.3031891267
0.3031892936
0.3031894003
0.3031894199
0.303189356
0.3031892713
0.3031893269
0.3031895305
0.3031896464
0.3031896582
0.3031895689
0.303189475
0.3031895422
0.3031897401
0.3031898571
0.3031898873
0.3031898686
0.3031898119
0.3031898526
0.3031899144
0.3031899386
0.3031899934
0.3031898335
0.303189492
0.3031894504
0.303188503
0.3031866092
0.3031817484
0.3031683114
0.3031359218
0.3030490226
0.3028354783
0.3022940902
0.3009241463
0.2974978404
0.2890127905
0.2688666861
0.2251821415
0.1566458534
0.1154234876
0.1030400457
0.1005156119
0.1000894579
0.1000156023
0.100002724
0.1000004757
0.1000000831
0.1000000145
0.1000000025
0.1000000004
0.1000000001
0.1
0.1
0.1
0.1
0.1
0.1
0.1
0.1
0.1
0.1
0.1
0.1
0.1
0.1
0.1
0.1
0.1
0.1
0.1
0.1
0.1
0.1
0.1
0.1
0.1
0.1
0.1
0.1
0.1
0.1
0.1
0.1
0.1
0.1
0.1
0.1
0.1
0.1
0.1
0.1
0.1
0.1
0.1
0.1
0.1
0.1
0.1
0.1
0.1
0.1
0.1
0.1
0.1
0.1
0.1
0.1
0.1
0.1
0.1
0.1
0.1
0.1
0.1
0.1
0.1
0.1
0.1
0.1
0.1
0.1
0.1
0.1
0.1
0.1
0.1
0.1
0.1
0.1
0.1
0.1
0.1
0.1
0.1
0.1
0.1
0.1
0.1
0.1
0.1
0.1
0.1
0.1
0.1
0.1
0.1
0.1
0.1
0.1
0.1
0.1
0.1
0.1
0.1
0.1
0.1
0.1
0.1
0.1
0.1
0.1
0.1
0.1
0.1
0.1
0.1
0.1
0.1
0.1
0.1
0.1
0.1
0.1
0.1
0.1
0.1
0.1
0.1
0.1
0.1
0.1
0.1
0.1
0.1
0.1
0.1
0.1
0.1
0.1
0.1
0.1
0.1
0.1
0.1
0.1
0.1
0.1
0.1
0.1
0.1
0.1
0.1
0.1
0.1
0.1
0.1
0.1
0.1
0.1
0.1
0.1
0.1
0.1
0.1
0.1
0.1
0.1
0.1
0.1
0.1
0.1
0.1
0.1
0.1
0.1
0.1
0.1
0.1
0.1
0.1
0.1
0.1
0.1
0.1
0.1
0.1
0.1
0.1
0.1
0.1
0.1
0.1
0.1
0.1
0.1
0.1
0.1
0.1
0.1
0.1
0.1
0.1
0.1
0.1
0.1
0.1
0.1
0.1
0.1
0.1
0.1
0.1
0.1
0.1
0.1
0.1
0.1
0.1
0.1
0.1
0.1
0.1
0.1
0.1
0.1
0.1
0.1
0.1
0.1
0.1
0.1
0.1
0.1
0.1
0.1
0.1
0.1
0.1
0.1
0.1
0.1
0.1
0.1
0.1
0.1
0.1
0.1
0.1
0.1
0.1
0.1
0.1
0.1
0.1
0.1
0.1
0.1
0.1
0.1
0.1
0.1
0.1
0.1
0.1
0.1
0.1
0.1
0.1
0.1
0.1
0.1
0.1
0.1
0.1
0.1
0.1
0.1
0.1
0.1
0.1
0.1
0.1
0.1
0.1
0.1
0.1
)
;

boundaryField
{
    sides
    {
        type            zeroGradient;
    }
    empty
    {
        type            empty;
    }
}


// ************************************************************************* //
