/*--------------------------------*- C++ -*----------------------------------*\
| =========                 |                                                 |
| \\      /  F ield         | OpenFOAM: The Open Source CFD Toolbox           |
|  \\    /   O peration     | Version:  v2012                                 |
|   \\  /    A nd           | Website:  www.openfoam.com                      |
|    \\/     M anipulation  |                                                 |
\*---------------------------------------------------------------------------*/
FoamFile
{
    version     2.0;
    format      ascii;
    class       volScalarField;
    location    "0.2";
    object      rho1;
}
// * * * * * * * * * * * * * * * * * * * * * * * * * * * * * * * * * * * * * //

dimensions      [1 -3 0 0 0 0 0];


internalField   nonuniform List<scalar> 
2000
(
1033.041348
1033.041348
1033.041348
1033.041348
1033.041348
1033.041348
1033.041348
1033.041348
1033.041348
1033.041348
1033.041348
1033.041348
1033.041348
1033.041348
1033.041348
1033.041348
1033.041348
1033.041348
1033.041348
1033.041348
1033.041348
1033.041348
1033.041348
1033.041348
1033.041348
1033.041348
1033.041348
1033.041348
1033.041348
1033.041348
1033.041348
1033.041348
1033.041348
1033.041348
1033.041348
1033.041348
1033.041348
1033.041348
1033.041348
1033.041348
1033.041348
1033.041348
1033.041348
1033.041348
1033.041348
1033.041348
1033.041348
1033.041348
1033.041348
1033.041348
1033.041348
1033.041348
1033.041348
1033.041348
1033.041348
1033.041348
1033.041348
1033.041348
1033.041348
1033.041348
1033.041348
1033.041348
1033.041348
1033.041348
1033.041348
1033.041348
1033.041348
1033.041348
1033.041348
1033.041348
1033.041348
1033.041348
1033.041348
1033.041348
1033.041348
1033.041348
1033.041348
1033.041348
1033.041348
1033.041348
1033.041348
1033.041348
1033.041348
1033.041348
1033.041348
1033.041348
1033.041348
1033.041348
1033.041348
1033.041348
1033.041348
1033.041348
1033.041348
1033.041348
1033.041348
1033.041348
1033.041348
1033.041348
1033.041348
1033.041348
1033.041348
1033.041348
1033.041348
1033.041348
1033.041348
1033.041348
1033.041348
1033.041348
1033.041348
1033.041348
1033.041348
1033.041348
1033.041348
1033.041348
1033.041348
1033.041348
1033.041348
1033.041348
1033.041348
1033.041348
1033.041348
1033.041348
1033.041348
1033.041348
1033.041348
1033.041348
1033.041348
1033.041348
1033.041348
1033.041348
1033.041348
1033.041348
1033.041348
1033.041348
1033.041348
1033.041348
1033.041348
1033.041348
1033.041348
1033.041348
1033.041348
1033.041348
1033.041348
1033.041348
1033.041348
1033.041348
1033.041348
1033.041348
1033.041348
1033.041348
1033.041348
1033.041348
1033.041348
1033.041348
1033.041348
1033.041348
1033.041348
1033.041348
1033.041348
1033.041348
1033.041348
1033.041348
1033.041348
1033.041348
1033.041348
1033.041348
1033.041348
1033.041348
1033.041348
1033.041348
1033.041348
1033.041348
1033.041348
1033.041348
1033.041348
1033.041348
1033.041348
1033.041348
1033.041348
1033.041348
1033.041348
1033.041348
1033.041348
1033.041348
1033.041348
1033.041348
1033.041348
1033.041348
1033.041348
1033.041348
1033.041348
1033.041348
1033.041348
1033.041348
1033.041348
1033.041348
1033.041348
1033.041348
1033.041348
1033.041348
1033.041348
1033.041348
1033.041348
1033.041348
1033.041348
1033.041348
1033.041348
1033.041348
1033.041348
1033.041348
1033.041348
1033.041348
1033.041348
1033.041348
1033.041348
1033.041348
1033.041348
1033.041348
1033.041348
1033.041348
1033.041348
1033.041348
1033.041348
1033.041348
1033.041348
1033.041348
1033.041348
1033.041348
1033.041348
1033.041348
1033.041348
1033.041348
1033.041348
1033.041348
1033.041348
1033.041348
1033.041348
1033.041348
1033.041348
1033.041348
1033.041348
1033.041348
1033.041348
1033.041348
1033.041348
1033.041348
1033.041348
1033.041348
1033.041348
1033.041348
1033.041348
1033.041348
1033.041348
1033.041348
1033.041348
1033.041348
1033.041348
1033.041348
1033.041348
1033.041348
1033.041348
1033.041348
1033.041348
1033.041348
1033.041348
1033.041348
1033.041348
1033.041348
1033.041348
1033.041348
1033.041348
1033.041348
1033.041348
1033.041348
1033.041348
1033.041348
1033.041348
1033.041348
1033.041348
1033.041348
1033.041348
1033.041348
1033.041348
1033.041348
1033.041348
1033.041348
1033.041348
1033.041348
1033.041348
1033.041348
1033.041348
1033.041348
1033.041348
1033.041348
1033.041348
1033.041348
1033.041348
1033.041348
1033.041348
1033.041348
1033.041348
1033.041348
1033.041348
1033.041348
1033.041348
1033.041348
1033.041348
1033.041348
1033.041348
1033.041348
1033.041348
1033.041348
1033.041348
1033.041348
1033.041348
1033.041348
1033.041348
1033.041348
1033.041348
1033.041348
1033.041348
1033.041348
1033.041348
1033.041348
1033.041348
1033.041348
1033.041348
1033.041348
1033.041348
1033.041348
1033.041348
1033.041348
1033.041348
1033.041348
1033.041348
1033.041348
1033.041348
1033.041348
1033.041348
1033.041348
1033.041348
1033.041348
1033.041348
1033.041348
1033.041348
1033.041348
1033.041348
1033.041348
1033.041348
1033.041348
1033.041348
1033.041348
1033.041348
1033.041348
1033.041348
1033.041348
1033.041348
1033.041348
1033.041348
1033.041348
1033.041348
1033.041348
1033.041348
1033.041348
1033.041348
1033.041348
1033.041348
1033.041348
1033.041348
1033.041348
1033.041348
1033.041348
1033.041348
1033.041348
1033.041348
1033.041348
1033.041348
1033.041348
1033.041348
1033.041348
1033.041348
1033.041348
1033.041348
1033.041348
1033.041348
1033.041348
1033.041348
1033.041348
1033.041348
1033.041348
1033.041348
1033.041348
1033.041348
1033.041348
1033.041348
1033.041348
1033.041348
1033.041348
1033.041348
1033.041348
1033.041348
1033.041348
1033.041348
1033.041348
1033.041348
1033.041348
1033.041348
1033.041348
1033.041348
1033.041348
1033.041348
1033.041348
1033.041348
1033.041348
1033.041348
1033.041348
1033.041348
1033.041348
1033.041348
1033.041348
1033.041348
1033.041348
1033.041348
1033.041348
1033.041348
1033.041348
1033.041348
1033.041348
1033.041348
1033.041348
1033.041348
1033.041348
1033.041348
1033.041348
1033.041348
1033.041348
1033.041348
1033.041348
1033.041348
1033.041348
1033.041348
1033.041348
1033.041348
1033.041348
1033.041348
1033.041348
1033.041348
1033.041348
1033.041348
1033.041348
1033.041348
1033.041348
1033.041348
1033.041348
1033.041348
1033.041348
1033.041348
1033.041348
1033.041348
1033.041348
1033.041348
1033.041348
1033.041348
1033.041348
1033.041348
1033.041348
1033.041348
1033.041348
1033.041348
1033.041348
1033.041348
1033.041348
1033.041348
1033.041348
1033.041348
1033.041348
1033.041348
1033.041348
1033.041348
1033.041348
1033.041348
1033.041348
1033.041348
1033.041348
1033.041348
1033.041348
1033.041348
1033.041348
1033.041348
1033.041348
1033.041348
1033.041348
1033.041347
1033.041347
1033.041347
1033.041347
1033.041347
1033.041346
1033.041346
1033.041345
1033.041345
1033.041344
1033.041342
1033.041341
1033.041339
1033.041336
1033.041333
1033.041329
1033.041325
1033.041319
1033.041312
1033.041304
1033.041294
1033.041283
1033.04127
1033.041255
1033.041238
1033.041219
1033.041197
1033.041173
1033.041147
1033.041118
1033.041086
1033.041052
1033.041015
1033.040975
1033.040934
1033.04089
1033.040844
1033.040796
1033.040746
1033.040694
1033.040641
1033.040586
1033.04053
1033.040473
1033.040415
1033.040356
1033.040296
1033.040235
1033.040173
1033.040111
1033.040049
1033.039985
1033.039922
1033.039858
1033.039794
1033.039729
1033.039664
1033.039599
1033.039534
1033.039468
1033.039403
1033.039337
1033.039271
1033.039205
1033.039139
1033.039073
1033.039007
1033.03894
1033.038874
1033.038808
1033.038741
1033.038675
1033.038608
1033.038542
1033.038476
1033.038409
1033.038343
1033.038277
1033.03821
1033.038144
1033.038078
1033.038012
1033.037945
1033.037879
1033.037813
1033.037747
1033.037681
1033.037615
1033.037549
1033.037483
1033.037417
1033.037351
1033.037286
1033.03722
1033.037154
1033.037089
1033.037023
1033.036958
1033.036892
1033.036827
1033.036762
1033.036697
1033.036631
1033.036566
1033.036501
1033.036437
1033.036372
1033.036307
1033.036242
1033.036178
1033.036113
1033.036048
1033.035984
1033.03592
1033.035855
1033.035791
1033.035727
1033.035663
1033.035599
1033.035535
1033.035471
1033.035408
1033.035344
1033.03528
1033.035217
1033.035154
1033.03509
1033.035027
1033.034964
1033.034901
1033.034838
1033.034775
1033.034712
1033.034649
1033.034586
1033.034524
1033.034461
1033.034399
1033.034337
1033.034274
1033.034212
1033.03415
1033.034088
1033.034026
1033.033964
1033.033902
1033.033841
1033.033779
1033.033718
1033.033656
1033.033595
1033.033533
1033.033472
1033.033411
1033.03335
1033.033289
1033.033228
1033.033168
1033.033107
1033.033046
1033.032986
1033.032925
1033.032865
1033.032805
1033.032745
1033.032684
1033.032624
1033.032565
1033.032505
1033.032445
1033.032385
1033.032326
1033.032266
1033.032207
1033.032147
1033.032088
1033.032029
1033.03197
1033.031911
1033.031852
1033.031793
1033.031734
1033.031676
1033.031617
1033.031559
1033.0315
1033.031442
1033.031384
1033.031326
1033.031267
1033.031209
1033.031152
1033.031094
1033.031036
1033.030978
1033.030921
1033.030863
1033.030806
1033.030749
1033.030691
1033.030634
1033.030577
1033.03052
1033.030463
1033.030406
1033.03035
1033.030293
1033.030236
1033.03018
1033.030123
1033.030067
1033.030011
1033.029955
1033.029899
1033.029843
1033.029787
1033.029731
1033.029675
1033.029619
1033.029564
1033.029508
1033.029453
1033.029398
1033.029342
1033.029287
1033.029232
1033.029177
1033.029122
1033.029067
1033.029012
1033.028958
1033.028903
1033.028849
1033.028794
1033.02874
1033.028685
1033.028631
1033.028577
1033.028523
1033.028469
1033.028415
1033.028361
1033.028308
1033.028254
1033.0282
1033.028147
1033.028094
1033.02804
1033.027987
1033.027934
1033.027881
1033.027828
1033.027775
1033.027722
1033.027669
1033.027616
1033.027564
1033.027511
1033.027459
1033.027406
1033.027354
1033.027302
1033.02725
1033.027198
1033.027146
1033.027094
1033.027042
1033.02699
1033.026939
1033.026887
1033.026835
1033.026784
1033.026733
1033.026681
1033.02663
1033.026579
1033.026528
1033.026477
1033.026426
1033.026375
1033.026324
1033.026274
1033.026223
1033.026173
1033.026122
1033.026072
1033.026022
1033.025971
1033.025921
1033.025871
1033.025821
1033.025771
1033.025721
1033.025672
1033.025622
1033.025572
1033.025523
1033.025473
1033.025424
1033.025375
1033.025325
1033.025276
1033.025227
1033.025178
1033.025129
1033.02508
1033.025032
1033.024983
1033.024934
1033.024886
1033.024837
1033.024789
1033.02474
1033.024692
1033.024644
1033.024596
1033.024548
1033.0245
1033.024452
1033.024404
1033.024356
1033.024309
1033.024261
1033.024214
1033.024166
1033.024119
1033.024071
1033.024024
1033.023977
1033.02393
1033.023883
1033.023836
1033.023789
1033.023742
1033.023696
1033.023649
1033.023603
1033.023556
1033.02351
1033.023463
1033.023417
1033.023371
1033.023325
1033.023279
1033.023233
1033.023187
1033.023141
1033.023095
1033.02305
1033.023004
1033.022959
1033.022913
1033.022868
1033.022822
1033.022777
1033.022732
1033.022687
1033.022642
1033.022597
1033.022552
1033.022507
1033.022463
1033.022418
1033.022374
1033.022329
1033.022285
1033.02224
1033.022196
1033.022152
1033.022108
1033.022064
1033.02202
1033.021976
1033.021932
1033.021888
1033.021845
1033.021801
1033.021757
1033.021714
1033.021671
1033.021627
1033.021584
1033.021541
1033.021498
1033.021455
1033.021412
1033.021369
1033.021326
1033.021284
1033.021241
1033.021198
1033.021156
1033.021114
1033.021071
1033.021029
1033.020987
1033.020945
1033.020903
1033.020861
1033.020819
1033.020777
1033.020735
1033.020694
1033.020652
1033.020611
1033.020569
1033.020528
1033.020487
1033.020446
1033.020404
1033.020363
1033.020322
1033.020282
1033.020241
1033.0202
1033.020159
1033.020119
1033.020078
1033.020038
1033.019998
1033.019957
1033.019917
1033.019877
1033.019837
1033.019797
1033.019757
1033.019718
1033.019678
1033.019638
1033.019599
1033.019559
1033.01952
1033.019481
1033.019441
1033.019402
1033.019363
1033.019324
1033.019285
1033.019246
1033.019208
1033.019169
1033.01913
1033.019092
1033.019053
1033.019015
1033.018977
1033.018938
1033.0189
1033.018862
1033.018824
1033.018786
1033.018749
1033.018711
1033.018673
1033.018636
1033.018598
1033.018561
1033.018524
1033.018487
1033.018449
1033.018413
1033.018376
1033.018339
1033.018303
1033.018266
1033.01823
1033.018194
1033.018158
1033.018122
1033.018087
1033.018052
1033.018017
1033.017983
1033.017949
1033.017916
1033.017883
1033.017851
1033.017821
1033.017791
1033.017763
1033.017737
1033.017714
1033.017692
1033.017674
1033.017659
1033.017646
1033.017637
1033.01763
1033.017625
1033.017622
1033.01762
1033.01762
1033.01762
1033.01762
1033.01762
1033.017621
1033.017622
1033.017624
1033.017625
1033.017625
1033.017626
1033.017626
1033.017627
1033.017627
1033.017628
1033.017628
1033.017628
1033.017628
1033.017628
1033.017629
1033.017629
1033.017629
1033.017629
1033.017629
1033.017629
1033.017629
1033.017629
1033.017629
1033.017629
1033.017629
1033.017629
1033.017629
1033.017629
1033.017629
1033.017629
1033.017629
1033.017629
1033.017629
1033.017629
1033.017629
1033.017629
1033.017629
1033.017629
1033.017629
1033.017629
1033.017629
1033.017629
1033.017629
1033.017629
1033.017629
1033.017629
1033.017629
1033.017629
1033.017629
1033.017629
1033.017629
1033.017629
1033.017629
1033.017629
1033.017629
1033.017629
1033.017629
1033.017629
1033.017629
1033.017629
1033.017629
1033.017629
1033.017629
1033.017629
1033.017629
1033.017629
1033.017629
1033.017629
1033.017629
1033.017629
1033.017629
1033.017629
1033.017629
1033.017629
1033.017629
1033.017629
1033.017629
1033.017629
1033.017629
1033.017629
1033.017629
1033.017629
1033.017629
1033.017629
1033.017629
1033.017629
1033.017629
1033.017629
1033.017629
1033.017629
1033.017629
1033.017629
1033.017629
1033.017629
1033.017629
1033.017629
1033.017629
1033.017629
1033.017629
1033.017629
1033.017629
1033.017629
1033.017629
1033.017629
1033.017629
1033.017629
1033.017629
1033.017629
1033.017629
1033.017629
1033.017629
1033.017629
1033.017629
1033.017629
1033.017629
1033.017629
1033.017629
1033.017629
1033.017629
1033.017629
1033.017629
1033.017629
1033.017629
1033.017629
1033.017629
1033.017629
1033.017629
1033.017629
1033.017629
1033.017629
1033.017629
1033.017629
1033.017629
1033.017629
1033.017629
1033.017629
1033.017629
1033.017629
1033.017629
1033.017629
1033.017629
1033.017629
1033.017629
1033.017629
1033.017629
1033.017629
1033.017629
1033.017629
1033.017629
1033.017629
1033.017629
1033.017629
1033.017629
1033.017629
1033.017629
1033.017629
1033.017629
1033.017629
1033.017629
1033.017629
1033.017629
1033.017629
1033.017629
1033.017629
1033.017629
1033.017629
1033.017629
1033.017629
1033.017629
1033.017629
1033.017629
1033.017629
1033.017629
1033.017629
1033.017629
1033.017629
1033.017629
1033.017629
1033.017629
1033.017629
1033.017629
1033.017629
1033.017629
1033.017629
1033.017629
1033.017629
1033.017629
1033.017629
1033.017629
1033.017629
1033.017629
1033.017628
1033.017628
1033.017628
1033.017628
1033.017628
1033.017628
1033.017628
1033.017628
1033.017628
1033.017628
1033.017628
1033.017628
1033.017628
1033.017628
1033.017628
1033.017628
1033.017628
1033.017628
1033.017628
1033.017628
1033.017628
1033.017628
1033.017628
1033.017628
1033.017628
1033.017628
1033.017628
1033.017628
1033.017628
1033.017628
1033.017628
1033.017628
1033.017628
1033.017628
1033.017628
1033.017628
1033.017628
1033.017628
1033.017628
1033.017628
1033.017628
1033.017628
1033.017628
1033.017628
1033.017628
1033.017628
1033.017628
1033.017628
1033.017628
1033.017628
1033.017628
1033.017628
1033.017628
1033.017628
1033.017628
1033.017628
1033.017628
1033.017628
1033.017628
1033.017628
1033.017628
1033.017628
1033.017628
1033.017628
1033.017628
1033.017628
1033.017628
1033.017628
1033.017628
1033.017628
1033.017628
1033.017628
1033.017628
1033.017628
1033.017628
1033.017628
1033.017628
1033.017628
1033.017628
1033.017628
1033.017628
1033.017628
1033.017628
1033.017628
1033.017628
1033.017628
1033.017628
1033.017628
1033.017628
1033.017628
1033.017628
1033.017628
1033.017628
1033.017628
1033.017628
1033.017628
1033.017628
1033.017627
1033.017627
1033.017627
1033.017627
1033.017627
1033.017627
1033.017627
1033.017627
1033.017627
1033.017627
1033.017627
1033.017627
1033.017627
1033.017627
1033.017627
1033.017627
1033.017627
1033.017627
1033.017627
1033.017627
1033.017627
1033.017627
1033.017627
1033.017627
1033.017627
1033.017627
1033.017627
1033.017627
1033.017627
1033.017627
1033.017627
1033.017627
1033.017627
1033.017626
1033.017626
1033.017626
1033.017626
1033.017626
1033.017626
1033.017626
1033.017626
1033.017626
1033.017626
1033.017626
1033.017626
1033.017626
1033.017626
1033.017626
1033.017626
1033.017626
1033.017626
1033.017625
1033.017625
1033.017625
1033.017625
1033.017625
1033.017625
1033.017625
1033.017624
1033.017624
1033.017624
1033.017623
1033.017623
1033.017622
1033.017621
1033.01762
1033.017618
1033.017616
1033.017614
1033.017608
1033.017605
1033.017597
1033.017591
1033.017577
1033.017567
1033.017545
1033.017528
1033.017494
1033.017467
1033.017416
1033.017374
1033.0173
1033.017236
1033.017132
1033.017039
1033.016898
1033.016768
1033.016583
1033.016409
1033.016176
1033.015952
1033.015672
1033.015397
1033.015074
1033.014755
1033.0144
1033.014044
1033.013672
1033.013296
1033.012925
1033.012594
1033.01231
1033.012071
1033.011869
1033.011701
1033.011561
1033.011446
1033.011351
1033.011274
1033.011211
1033.01116
1033.01112
1033.011088
1033.011062
1033.011042
1033.011026
1033.011014
1033.011005
1033.010998
1033.010992
1033.010988
1033.010985
1033.010983
1033.010981
1033.01098
1033.010979
1033.010978
1033.010977
1033.010977
1033.010977
1033.010977
1033.010976
1033.010976
1033.010976
1033.010976
1033.010976
1033.010976
1033.010976
1033.010976
1033.010976
1033.010975
1033.010975
1033.010975
1033.010975
1033.010975
1033.010975
1033.010975
1033.010975
1033.010975
1033.010975
1033.010975
1033.010975
1033.010975
1033.010975
1033.010975
1033.010975
1033.010975
1033.010975
1033.010975
1033.010975
1033.010975
1033.010975
1033.010975
1033.010975
1033.010975
1033.010975
1033.010975
1033.010975
1033.010975
1033.010975
1033.010975
1033.010975
1033.010975
1033.010975
1033.010975
1033.010975
1033.010975
1033.010975
1033.010975
1033.010975
1033.010975
1033.010975
1033.010975
1033.010975
1033.010975
1033.010975
1033.010975
1033.010975
1033.010975
1033.010975
1033.010975
1033.010975
1033.010975
1033.010975
1033.010975
1033.010975
1033.010975
1033.010975
1033.010975
1033.010975
1033.010975
1033.010975
1033.010975
1033.010975
1033.010975
1033.010975
1033.010975
1033.010975
1033.010975
1033.010975
1033.010975
1033.010975
1033.010975
1033.010975
1033.010975
1033.010975
1033.010975
1033.010975
1033.010975
1033.010975
1033.010975
1033.010975
1033.010975
1033.010975
1033.010975
1033.010975
1033.010975
1033.010975
1033.010975
1033.010975
1033.010975
1033.010975
1033.010975
1033.010975
1033.010975
1033.010975
1033.010975
1033.010975
1033.010975
1033.010975
1033.010975
1033.010975
1033.010975
1033.010975
1033.010975
1033.010975
1033.010975
1033.010975
1033.010975
1033.010975
1033.010975
1033.010975
1033.010975
1033.010975
1033.010975
1033.010975
1033.010975
1033.010975
1033.010975
1033.010975
1033.010975
1033.010975
1033.010975
1033.010975
1033.010975
1033.010975
1033.010975
1033.010975
1033.010975
1033.010975
1033.010975
1033.010975
1033.010975
1033.010975
1033.010975
1033.010975
1033.010975
1033.010975
1033.010975
1033.010975
1033.010975
1033.010975
1033.010975
1033.010975
1033.010975
1033.010975
1033.010975
1033.010975
1033.010975
1033.010975
1033.010975
1033.010975
1033.010975
1033.010975
1033.010975
1033.010975
1033.010975
1033.010975
1033.010975
1033.010975
1033.010975
1033.010975
1033.010975
1033.010975
1033.010975
1033.010975
1033.010975
1033.010975
1033.010975
1033.010975
1033.010975
1033.010975
1033.010975
1033.010975
1033.010975
1033.010975
1033.010975
1033.010975
1033.010975
1033.010975
1033.010975
1033.010975
1033.010975
1033.010975
1033.010975
1033.010975
1033.010975
1033.010975
1033.010975
1033.010975
1033.010975
1033.010975
1033.010975
1033.010975
1033.010975
1033.010975
1033.010975
1033.010975
1033.010975
1033.010975
1033.010975
1033.010975
1033.010975
1033.010975
1033.010975
1033.010975
1033.010975
1033.010975
1033.010975
1033.010975
1033.010975
1033.010975
1033.010975
1033.010975
1033.010975
1033.010975
1033.010975
1033.010975
1033.010975
1033.010975
1033.010975
1033.010975
1033.010975
1033.010975
1033.010975
1033.010975
1033.010975
1033.010975
1033.010975
1033.010975
1033.010975
1033.010975
1033.010975
1033.010975
1033.010975
1033.010975
1033.010975
1033.010975
1033.010975
1033.010975
1033.010975
1033.010975
1033.010975
1033.010975
1033.010975
1033.010975
1033.010975
1033.010975
1033.010975
1033.010975
1033.010975
1033.010975
1033.010975
1033.010975
1033.010975
1033.010975
1033.010975
1033.010975
1033.010975
1033.010975
1033.010975
1033.010975
1033.010975
1033.010975
1033.010975
1033.010975
1033.010975
1033.010975
1033.010975
1033.010975
1033.010975
1033.010975
1033.010975
1033.010975
1033.010975
1033.010975
1033.010975
1033.010974
1033.010974
1033.010971
1033.010966
1033.010951
1033.010915
1033.010823
1033.010596
1033.010051
1033.008842
1033.006849
1033.00565
1033.005273
1033.005187
1033.005172
1033.005169
1033.005169
1033.005168
1033.005168
1033.005168
1033.005168
1033.005168
1033.005168
1033.005168
1033.005168
1033.005168
1033.005168
1033.005168
1033.005168
1033.005168
1033.005168
1033.005168
1033.005168
1033.005168
1033.005168
1033.005168
1033.005168
1033.005168
1033.005168
1033.005168
1033.005168
1033.005168
1033.005168
1033.005168
1033.005168
1033.005168
1033.005168
1033.005168
1033.005168
1033.005168
1033.005168
1033.005168
1033.005168
1033.005168
1033.005168
1033.005168
1033.005168
1033.005168
1033.005168
1033.005168
1033.005168
1033.005168
1033.005168
1033.005168
1033.005168
1033.005168
1033.005168
1033.005168
1033.005168
1033.005168
1033.005168
1033.005168
1033.005168
1033.005168
1033.005168
1033.005168
1033.005168
1033.005168
1033.005168
1033.005168
1033.005168
1033.005168
1033.005168
1033.005168
1033.005168
1033.005168
1033.005168
1033.005168
1033.005168
1033.005168
1033.005168
1033.005168
1033.005168
1033.005168
1033.005168
1033.005168
1033.005168
1033.005168
1033.005168
1033.005168
1033.005168
1033.005168
1033.005168
1033.005168
1033.005168
1033.005168
1033.005168
1033.005168
1033.005168
1033.005168
1033.005168
1033.005168
1033.005168
1033.005168
1033.005168
1033.005168
1033.005168
1033.005168
1033.005168
1033.005168
1033.005168
1033.005168
1033.005168
1033.005168
1033.005168
1033.005168
1033.005168
1033.005168
1033.005168
1033.005168
1033.005168
1033.005168
1033.005168
1033.005168
1033.005168
1033.005168
1033.005168
1033.005168
1033.005168
1033.005168
1033.005168
1033.005168
1033.005168
1033.005168
1033.005168
1033.005168
1033.005168
1033.005168
1033.005168
1033.005168
1033.005168
1033.005168
1033.005168
1033.005168
1033.005168
1033.005168
1033.005168
1033.005168
1033.005168
1033.005168
1033.005168
1033.005168
1033.005168
1033.005168
1033.005168
1033.005168
1033.005168
1033.005168
1033.005168
1033.005168
1033.005168
1033.005168
1033.005168
1033.005168
1033.005168
1033.005168
1033.005168
1033.005168
1033.005168
1033.005168
1033.005168
1033.005168
1033.005168
1033.005168
1033.005168
1033.005168
1033.005168
1033.005168
1033.005168
1033.005168
1033.005168
1033.005168
1033.005168
1033.005168
1033.005168
1033.005168
1033.005168
1033.005168
1033.005168
1033.005168
1033.005168
1033.005168
1033.005168
1033.005168
1033.005168
1033.005168
1033.005168
1033.005168
1033.005168
1033.005168
1033.005168
1033.005168
1033.005168
1033.005168
1033.005168
1033.005168
1033.005168
1033.005168
1033.005168
1033.005168
1033.005168
1033.005168
1033.005168
1033.005168
1033.005168
1033.005168
1033.005168
1033.005168
1033.005168
1033.005168
1033.005168
1033.005168
1033.005168
1033.005168
1033.005168
1033.005168
1033.005168
1033.005168
1033.005168
1033.005168
1033.005168
1033.005168
1033.005168
1033.005168
1033.005168
1033.005168
1033.005168
1033.005168
1033.005168
1033.005168
1033.005168
1033.005168
1033.005168
1033.005168
1033.005168
1033.005168
1033.005168
1033.005168
1033.005168
1033.005168
1033.005168
1033.005168
1033.005168
1033.005168
1033.005168
1033.005168
1033.005168
1033.005168
1033.005168
1033.005168
1033.005168
1033.005168
1033.005168
1033.005168
1033.005168
1033.005168
1033.005168
1033.005168
1033.005168
1033.005168
1033.005168
1033.005168
1033.005168
1033.005168
1033.005168
1033.005168
1033.005168
1033.005168
1033.005168
1033.005168
1033.005168
1033.005168
1033.005168
1033.005168
1033.005168
1033.005168
1033.005168
1033.005168
1033.005168
1033.005168
1033.005168
1033.005168
1033.005168
1033.005168
1033.005168
1033.005168
1033.005168
1033.005168
)
;

boundaryField
{
    sides
    {
        type            calculated;
        value           nonuniform List<scalar> 2(1033.005168 1033.041348);
    }
    empty
    {
        type            empty;
    }
}


// ************************************************************************* //
