/*--------------------------------*- C++ -*----------------------------------*\
| =========                 |                                                 |
| \\      /  F ield         | OpenFOAM: The Open Source CFD Toolbox           |
|  \\    /   O peration     | Version:  v2012                                 |
|   \\  /    A nd           | Website:  www.openfoam.com                      |
|    \\/     M anipulation  |                                                 |
\*---------------------------------------------------------------------------*/
FoamFile
{
    version     2.0;
    format      ascii;
    class       volScalarField;
    location    "0.2";
    object      rho2;
}
// * * * * * * * * * * * * * * * * * * * * * * * * * * * * * * * * * * * * * //

dimensions      [1 -3 0 0 0 0 0];


internalField   nonuniform List<scalar> 
2000
(
0.9989740407
0.9989740407
0.9989740407
0.9989740407
0.9989740407
0.9989740407
0.9989740407
0.9989740407
0.9989740407
0.9989740407
0.9989740407
0.9989740407
0.9989740407
0.9989740407
0.9989740407
0.9989740407
0.9989740407
0.9989740407
0.9989740407
0.9989740407
0.9989740407
0.9989740407
0.9989740407
0.9989740407
0.9989740407
0.9989740407
0.9989740407
0.9989740407
0.9989740407
0.9989740407
0.9989740407
0.9989740407
0.9989740407
0.9989740407
0.9989740407
0.9989740407
0.9989740407
0.9989740407
0.9989740407
0.9989740407
0.9989740407
0.9989740407
0.9989740407
0.9989740407
0.9989740407
0.9989740407
0.9989740407
0.9989740407
0.9989740407
0.9989740407
0.9989740407
0.9989740407
0.9989740407
0.9989740407
0.9989740407
0.9989740407
0.9989740407
0.9989740407
0.9989740407
0.9989740407
0.9989740407
0.9989740407
0.9989740407
0.9989740407
0.9989740407
0.9989740407
0.9989740407
0.9989740407
0.9989740407
0.9989740407
0.9989740407
0.9989740407
0.9989740407
0.9989740407
0.9989740407
0.9989740407
0.9989740407
0.9989740407
0.9989740407
0.9989740407
0.9989740407
0.9989740407
0.9989740407
0.9989740407
0.9989740407
0.9989740407
0.9989740407
0.9989740407
0.9989740407
0.9989740407
0.9989740407
0.9989740407
0.9989740407
0.9989740407
0.9989740407
0.9989740407
0.9989740407
0.9989740407
0.9989740407
0.9989740407
0.9989740407
0.9989740407
0.9989740407
0.9989740407
0.9989740407
0.9989740407
0.9989740407
0.9989740407
0.9989740407
0.9989740407
0.9989740407
0.9989740407
0.9989740407
0.9989740407
0.9989740407
0.9989740407
0.9989740407
0.9989740407
0.9989740407
0.9989740407
0.9989740407
0.9989740407
0.9989740407
0.9989740407
0.9989740407
0.9989740407
0.9989740407
0.9989740407
0.9989740407
0.9989740407
0.9989740407
0.9989740407
0.9989740407
0.9989740407
0.9989740407
0.9989740407
0.9989740407
0.9989740407
0.9989740407
0.9989740407
0.9989740407
0.9989740407
0.9989740407
0.9989740407
0.9989740407
0.9989740407
0.9989740407
0.9989740407
0.9989740407
0.9989740407
0.9989740407
0.9989740407
0.9989740407
0.9989740407
0.9989740407
0.9989740407
0.9989740407
0.9989740407
0.9989740407
0.9989740407
0.9989740407
0.9989740407
0.9989740407
0.9989740407
0.9989740407
0.9989740407
0.9989740407
0.9989740407
0.9989740407
0.9989740407
0.9989740407
0.9989740407
0.9989740407
0.9989740407
0.9989740407
0.9989740407
0.9989740407
0.9989740407
0.9989740407
0.9989740407
0.9989740407
0.9989740407
0.9989740407
0.9989740407
0.9989740407
0.9989740407
0.9989740407
0.9989740407
0.9989740407
0.9989740407
0.9989740407
0.9989740407
0.9989740407
0.9989740407
0.9989740407
0.9989740407
0.9989740407
0.9989740407
0.9989740407
0.9989740407
0.9989740407
0.9989740407
0.9989740407
0.9989740407
0.9989740407
0.9989740407
0.9989740407
0.9989740407
0.9989740407
0.9989740407
0.9989740407
0.9989740407
0.9989740407
0.9989740407
0.9989740407
0.9989740407
0.9989740407
0.9989740407
0.9989740407
0.9989740407
0.9989740407
0.9989740407
0.9989740407
0.9989740407
0.9989740407
0.9989740407
0.9989740407
0.9989740407
0.9989740407
0.9989740407
0.9989740407
0.9989740407
0.9989740407
0.9989740407
0.9989740407
0.9989740407
0.9989740407
0.9989740407
0.9989740407
0.9989740407
0.9989740407
0.9989740407
0.9989740407
0.9989740407
0.9989740407
0.9989740407
0.9989740407
0.9989740407
0.9989740407
0.9989740407
0.9989740407
0.9989740407
0.9989740407
0.9989740407
0.9989740407
0.9989740407
0.9989740407
0.9989740407
0.9989740407
0.9989740407
0.9989740407
0.9989740407
0.9989740407
0.9989740407
0.9989740407
0.9989740407
0.9989740407
0.9989740407
0.9989740407
0.9989740407
0.9989740407
0.9989740407
0.9989740407
0.9989740407
0.9989740407
0.9989740407
0.9989740407
0.9989740407
0.9989740407
0.9989740407
0.9989740407
0.9989740407
0.9989740407
0.9989740407
0.9989740407
0.9989740407
0.9989740407
0.9989740407
0.9989740407
0.9989740407
0.9989740407
0.9989740407
0.9989740407
0.9989740407
0.9989740407
0.9989740407
0.9989740407
0.9989740407
0.9989740407
0.9989740407
0.9989740407
0.9989740407
0.9989740407
0.9989740407
0.9989740407
0.9989740407
0.9989740407
0.9989740407
0.9989740407
0.9989740407
0.9989740407
0.9989740407
0.9989740407
0.9989740407
0.9989740407
0.9989740407
0.9989740407
0.9989740407
0.9989740407
0.9989740407
0.9989740407
0.9989740407
0.9989740407
0.9989740407
0.9989740407
0.9989740407
0.9989740407
0.9989740407
0.9989740407
0.9989740407
0.9989740407
0.9989740407
0.9989740407
0.9989740407
0.9989740407
0.9989740407
0.9989740407
0.9989740407
0.9989740407
0.9989740407
0.9989740407
0.9989740407
0.9989740407
0.9989740407
0.9989740407
0.9989740407
0.9989740407
0.9989740407
0.9989740407
0.9989740407
0.9989740407
0.9989740407
0.9989740407
0.9989740407
0.9989740407
0.9989740407
0.9989740407
0.9989740407
0.9989740407
0.9989740407
0.9989740407
0.9989740407
0.9989740407
0.9989740407
0.9989740407
0.9989740407
0.9989740407
0.9989740407
0.9989740407
0.9989740407
0.9989740407
0.9989740407
0.9989740407
0.9989740407
0.9989740407
0.9989740407
0.9989740407
0.9989740407
0.9989740407
0.9989740407
0.9989740407
0.9989740407
0.9989740407
0.9989740407
0.9989740407
0.9989740407
0.9989740407
0.9989740407
0.9989740407
0.9989740407
0.9989740407
0.9989740407
0.9989740407
0.9989740407
0.9989740407
0.9989740407
0.9989740407
0.9989740407
0.9989740407
0.9989740407
0.9989740407
0.9989740407
0.9989740407
0.9989740407
0.9989740407
0.9989740407
0.9989740407
0.9989740407
0.9989740407
0.9989740407
0.9989740407
0.9989740407
0.9989740407
0.9989740407
0.9989740407
0.9989740407
0.9989740407
0.9989740407
0.9989740407
0.9989740407
0.9989740407
0.9989740407
0.9989740407
0.9989740407
0.9989740407
0.9989740407
0.9989740407
0.9989740407
0.9989740407
0.9989740407
0.9989740407
0.9989740407
0.9989740407
0.9989740407
0.9989740407
0.9989740407
0.9989740407
0.9989740407
0.9989740407
0.9989740407
0.9989740407
0.9989740407
0.9989740407
0.9989740407
0.9989740407
0.9989740407
0.9989740407
0.9989740407
0.9989740407
0.9989740407
0.9989740407
0.9989740407
0.9989740407
0.9989740407
0.9989740407
0.9989740407
0.9989740407
0.9989740407
0.9989740407
0.9989740407
0.9989740407
0.9989740406
0.9989740406
0.9989740406
0.9989740405
0.9989740405
0.9989740403
0.9989740401
0.9989740399
0.9989740394
0.9989740387
0.9989740377
0.9989740362
0.9989740339
0.9989740305
0.9989740254
0.9989740179
0.9989740069
0.9989739908
0.9989739672
0.9989739331
0.9989738838
0.998973813
0.9989737118
0.9989735679
0.9989733644
0.998973078
0.9989726772
0.9989721191
0.9989713465
0.9989702829
0.9989688267
0.9989668449
0.9989641633
0.9989605568
0.9989557357
0.9989493313
0.9989408775
0.9989297908
0.9989153472
0.9988966573
0.9988726393
0.9988419912
0.9988031639
0.9987543347
0.9986933863
0.9986178903
0.9985250997
0.9984119524
0.9982750879
0.9981108787
0.9979154794
0.997684892
0.9974150473
0.9971019014
0.996741541
0.9963302959
0.9958648503
0.9953423476
0.994760483
0.9941175754
0.9934126177
0.9926452994
0.9918160012
0.9909257638
0.9899762323
0.9889695812
0.9879084254
0.9867957235
0.9856346794
0.9844286461
0.9831810386
0.9818952569
0.9805746215
0.9792223233
0.9778413861
0.9764346413
0.9750047139
0.9735540168
0.9720847525
0.9705989198
0.9690983246
0.9675845922
0.9660591819
0.9645234013
0.9629784201
0.9614252841
0.9598649279
0.9582981859
0.9567258031
0.9551484442
0.9535667019
0.9519810923
0.9503922381
0.9488005521
0.9472063602
0.9456099469
0.9440115584
0.9424113975
0.9408096969
0.9392069133
0.9376035111
0.9359997629
0.9343958211
0.9327917933
0.9311877864
0.9295839053
0.9279802552
0.9263769372
0.9247740464
0.9231716718
0.9215698967
0.9199687987
0.9183684506
0.9167689205
0.9151702723
0.913572566
0.9119758582
0.9103802022
0.9087856484
0.9071922445
0.9056000354
0.9040090642
0.9024193715
0.900830996
0.8992439747
0.8976583427
0.8960741334
0.8944913785
0.8929101076
0.8913303485
0.8897521269
0.8881754663
0.8866003884
0.8850269132
0.8834550602
0.8818848496
0.8803163041
0.878749448
0.8771843021
0.8756208831
0.8740592074
0.8724992907
0.8709411479
0.8693847931
0.86783024
0.8662775014
0.8647265896
0.8631775163
0.8616302928
0.8600849297
0.8585414371
0.8569998247
0.8554601018
0.8539222771
0.8523863589
0.8508523554
0.8493202739
0.8477901218
0.846261906
0.8447356328
0.8432113086
0.8416889393
0.8401685304
0.8386500872
0.8371336148
0.8356191181
0.8341066013
0.832596069
0.8310875251
0.8295809735
0.8280764178
0.8265738614
0.8250733075
0.8235747591
0.8220782191
0.8205836902
0.8190911748
0.8176006754
0.816112194
0.8146257328
0.8131412935
0.8116588781
0.810178488
0.8087001249
0.80722379
0.8057494846
0.8042772099
0.8028069668
0.8013387564
0.7998725794
0.7984084366
0.7969463285
0.7954862557
0.7940282188
0.7925722179
0.7911182535
0.7896663257
0.7882164346
0.7867685803
0.7853227628
0.783878982
0.7824372378
0.7809975299
0.7795598581
0.7781242219
0.7766906211
0.7752590552
0.7738295237
0.772402026
0.7709765615
0.7695531295
0.7681317294
0.7667123604
0.7652950218
0.7638797126
0.762466432
0.7610551791
0.7596459529
0.7582387524
0.7568335767
0.7554304246
0.754029295
0.7526301868
0.7512330988
0.7498380299
0.7484449787
0.7470539441
0.7456649247
0.7442779192
0.7428929263
0.7415099445
0.7401289725
0.7387500089
0.7373730522
0.7359981009
0.7346251535
0.7332542085
0.7318852643
0.7305183194
0.7291533721
0.7277904209
0.7264294641
0.7250705001
0.7237135271
0.7223585436
0.7210055477
0.7196545377
0.7183055119
0.7169584685
0.7156134058
0.7142703218
0.7129292149
0.7115900831
0.7102529246
0.7089177376
0.7075845201
0.7062532703
0.7049239863
0.7035966661
0.7022713078
0.7009479094
0.699626469
0.6983069847
0.6969894543
0.695673876
0.6943602477
0.6930485674
0.6917388332
0.6904310428
0.6891251944
0.6878212858
0.686519315
0.6852192799
0.6839211784
0.6826250085
0.6813307681
0.6800384551
0.6787480673
0.6774596027
0.6761730592
0.6748884346
0.6736057268
0.6723249337
0.6710460533
0.6697690832
0.6684940215
0.667220866
0.6659496145
0.6646802649
0.6634128152
0.6621472631
0.6608836065
0.6596218433
0.6583619713
0.6571039884
0.6558478925
0.6545936814
0.653341353
0.6520909052
0.6508423358
0.6495956428
0.6483508239
0.6471078771
0.6458668002
0.6446275912
0.643390248
0.6421547684
0.6409211505
0.639689392
0.638459491
0.6372314453
0.6360052529
0.6347809118
0.6335584199
0.6323377751
0.6311189753
0.6299020186
0.6286869028
0.6274736259
0.6262621859
0.6250525806
0.6238448079
0.622638866
0.6214347526
0.6202324659
0.6190320036
0.6178333639
0.6166365448
0.6154415443
0.6142483605
0.6130569917
0.6118674359
0.6106796917
0.6094937573
0.6083096312
0.607127312
0.6059467985
0.6047680894
0.6035911835
0.6024160798
0.6012427772
0.6000712746
0.5989015711
0.5977336658
0.5965675576
0.5954032458
0.5942407298
0.5930800091
0.5919210838
0.5907639549
0.5896086237
0.5884550921
0.587303362
0.5861534348
0.5850053118
0.5838589917
0.5827144729
0.5815717544
0.5804308348
0.5792917121
0.5781543815
0.5770188432
0.5758850949
0.5747531297
0.5736229569
0.5724945782
0.571367978
0.5702431767
0.5691201772
0.5679989418
0.5668795006
0.5657618721
0.5646460001
0.5635319134
0.5624196717
0.5613091952
0.5602004766
0.5590936083
0.5579885191
0.5568851568
0.55578362
0.5546839275
0.5535859621
0.5524897722
0.5513954489
0.5503028664
0.5492119992
0.5481229717
0.5470358106
0.5459503668
0.544866698
0.5437849413
0.5427048995
0.5416265462
0.540550035
0.5394754039
0.5384024879
0.5373312973
0.5362619981
0.5351944205
0.5341285264
0.533064427
0.5320022554
0.5309418502
0.5298830835
0.5288261656
0.5277710373
0.5267176547
0.5256660232
0.5246163573
0.5235686568
0.5225225186
0.5214780986
0.5204355382
0.5193948097
0.5183558987
0.5173188
0.5162837887
0.5152504367
0.5142185459
0.5131885078
0.5121603657
0.511134255
0.510109814
0.5090873728
0.5080668258
0.5070477872
0.5060303112
0.5050147137
0.5040015235
0.5029903977
0.5019805925
0.5009726857
0.4999665399
0.4989625491
0.4979601729
0.4969596943
0.4959615605
0.4949650305
0.4939700939
0.492976924
0.4919854307
0.4909966114
0.4900098897
0.4890243284
0.4880405228
0.4870582924
0.4860786697
0.4851011317
0.4841249156
0.4831512276
0.4821783905
0.4812073403
0.480238961
0.4792730192
0.4783080398
0.4773453537
0.4763838218
0.4754241909
0.47446723
0.4735125172
0.4725589849
0.4716069559
0.4706564505
0.4697087254
0.4687635455
0.4678192552
0.4668767426
0.46593579
0.4649975362
0.4640618233
0.4631267361
0.4621933032
0.4612624465
0.4603343571
0.4594068885
0.4584811652
0.4575578944
0.4566375145
0.4557177042
0.4547997814
0.4538845413
0.4529721589
0.452060156
0.4511504012
0.450243821
0.4493398066
0.4484365608
0.4475364635
0.4466400225
0.4457444452
0.4448528544
0.4439648919
0.443078935
0.4421967516
0.4413178075
0.4404423936
0.4395711175
0.4387045474
0.4378433013
0.4369881715
0.4361401364
0.4353004157
0.4344704305
0.4336520617
0.4328475942
0.4320601047
0.4312932728
0.4305518787
0.4298414715
0.4291688825
0.4285415071
0.4279674797
0.4274543689
0.4270088615
0.4266350389
0.426334145
0.4261032618
0.4259361159
0.4258232044
0.4257534522
0.4257154287
0.4256986296
0.4256938568
0.425694767
0.4257017367
0.4257206885
0.4257540027
0.4257905856
0.4258148785
0.4258324251
0.4258466037
0.4258586482
0.4258690574
0.4258781268
0.4258860574
0.425892973
0.4258989335
0.425903962
0.4259080818
0.4259113491
0.4259138647
0.4259157726
0.4259172322
0.4259184065
0.4259194294
0.425920393
0.42592136
0.4259223555
0.4259233711
0.4259243006
0.4259250992
0.425925781
0.4259264016
0.4259269686
0.4259274976
0.4259279276
0.4259282619
0.4259284672
0.4259285291
0.4259284479
0.4259283876
0.4259283277
0.4259282785
0.4259282406
0.4259282044
0.4259281643
0.4259281135
0.4259280457
0.4259279533
0.4259278327
0.4259276903
0.425927522
0.4259273296
0.4259271197
0.4259269131
0.4259267042
0.4259264812
0.4259262286
0.4259259514
0.425925658
0.4259253515
0.425925032
0.4259246945
0.4259243301
0.4259239606
0.4259236272
0.4259233152
0.4259230261
0.4259227532
0.4259224882
0.4259222283
0.4259219712
0.4259217144
0.4259214571
0.425921192
0.4259209203
0.4259206546
0.4259204173
0.4259201917
0.4259199746
0.425919762
0.425919545
0.4259193273
0.4259191114
0.425918902
0.4259187025
0.4259185155
0.4259183431
0.4259181861
0.4259180446
0.4259179172
0.4259178026
0.4259176995
0.4259176067
0.4259175229
0.4259174456
0.4259173705
0.4259172917
0.4259172065
0.4259171166
0.4259170285
0.4259169408
0.4259168571
0.4259167775
0.4259167016
0.4259166294
0.4259165609
0.4259164952
0.4259164313
0.4259163707
0.4259163121
0.4259162552
0.4259161996
0.4259161458
0.4259160948
0.425916047
0.4259160025
0.4259159624
0.4259159272
0.4259158338
0.4259157701
0.4259157092
0.4259156567
0.4259156101
0.4259155116
0.4259154588
0.425915411
0.4259153619
0.4259152873
0.4259152266
0.4259151739
0.4259151288
0.4259150661
0.4259149571
0.4259148934
0.4259148444
0.4259148048
0.4259146955
0.4259146245
0.425914557
0.4259145002
0.4259144551
0.4259143608
0.4259143122
0.4259142828
0.4259142574
0.4259141081
0.4259140528
0.4259140098
0.4259139105
0.4259138342
0.4259137665
0.4259137109
0.4259136577
0.4259134983
0.4259134372
0.4259133998
0.4259133885
0.4259132823
0.425913151
0.4259130878
0.4259130466
0.4259129006
0.4259128435
0.4259128129
0.4259127063
0.4259126171
0.4259125363
0.4259124729
0.4259124126
0.425912218
0.425912144
0.4259120875
0.4259119291
0.4259118495
0.4259117858
0.4259116689
0.4259115674
0.4259114736
0.4259113894
0.425911264
0.4259111787
0.4259111065
0.4259109516
0.4259108531
0.4259107655
0.4259106001
0.4259104995
0.425910414
0.4259102566
0.4259101559
0.4259100661
0.425909925
0.4259098069
0.4259096919
0.4259095623
0.4259094283
0.4259093139
0.4259092104
0.4259090541
0.4259089567
0.4259088781
0.4259086955
0.4259085898
0.4259084979
0.4259083124
0.4259081937
0.4259080888
0.4259079351
0.4259077796
0.4259076369
0.4259075021
0.4259073722
0.4259072023
0.4259070433
0.4259068863
0.425906731
0.4259065499
0.4259063906
0.4259062369
0.4259060518
0.4259058927
0.4259057408
0.4259055422
0.4259053805
0.4259052294
0.425905047
0.4259048649
0.4259046906
0.4259045204
0.4259043527
0.4259041805
0.4259039847
0.4259038
0.4259036159
0.4259034249
0.4259032144
0.425903013
0.4259028067
0.4259025993
0.4259023838
0.4259021712
0.4259019503
0.4259017325
0.4259015056
0.4259012818
0.4259010437
0.4259008081
0.4259005618
0.4259003183
0.4259000599
0.4258998037
0.4258995394
0.4258992765
0.4258990066
0.425898738
0.4258984669
0.4258981969
0.4258979249
0.4258976542
0.4258973795
0.4258971069
0.4258968265
0.425896549
0.4258962606
0.4258959757
0.4258956772
0.4258953825
0.4258950725
0.4258947663
0.4258944445
0.4258941263
0.4258937929
0.425893463
0.4258931186
0.4258927779
0.4258924227
0.4258920718
0.4258917048
0.4258913429
0.4258909621
0.4258905869
0.4258901895
0.4258897981
0.425889382
0.4258889721
0.4258885363
0.4258881068
0.4258876517
0.4258872029
0.4258867292
0.4258862621
0.4258857701
0.4258852853
0.4258847742
0.4258842709
0.4258837391
0.4258832155
0.4258826608
0.4258821147
0.4258815351
0.4258809644
0.4258803586
0.425879762
0.4258791291
0.4258785056
0.4258778452
0.4258771946
0.4258765061
0.4258758279
0.4258751101
0.4258744035
0.425873654
0.4258729171
0.425872132
0.4258713612
0.4258705353
0.4258697255
0.4258688528
0.4258679981
0.4258670726
0.4258661664
0.425865183
0.4258642199
0.4258631756
0.4258621524
0.4258610466
0.4258599625
0.4258587958
0.4258576512
0.4258564225
0.4258552174
0.4258539222
0.425852654
0.4258512843
0.4258499475
0.4258484916
0.425847078
0.4258455173
0.4258440153
0.4258423171
0.4258407083
0.4258388127
0.425837065
0.4258348589
0.4258329118
0.4258301804
0.4258279164
0.425824253
0.4258214414
0.4258160859
0.425812278
0.4258038383
0.4257981762
0.4257841558
0.4257750302
0.4257510489
0.4257355053
0.4256940727
0.4256668248
0.425595491
0.4255473487
0.4254260531
0.425341536
0.4251390288
0.4249929274
0.4246622825
0.4244150069
0.4238885467
0.4234803372
0.4226647955
0.4220093727
0.4207828009
0.4197618537
0.4179744795
0.4164355165
0.4139172777
0.411678491
0.4082557111
0.4051218443
0.4006439209
0.3964356107
0.3908094175
0.385404208
0.3786295511
0.3720062732
0.3642025925
0.3564729161
0.3478967733
0.3393029831
0.3303097915
0.3212352052
0.3122702857
0.3042654884
0.29742401
0.2916330022
0.2867653801
0.2826979263
0.2793192321
0.2765293909
0.2742395514
0.2723714254
0.2708566062
0.2696358062
0.2686580401
0.2678797945
0.2672642268
0.2667803804
0.2664024492
0.2661090878
0.2658827815
0.2657092712
0.2655770406
0.2654768591
0.2654013844
0.2653448205
0.2653026245
0.2652712645
0.2652480072
0.2652307588
0.265217925
0.2652083034
0.2652009953
0.265195338
0.2651908488
0.265187182
0.2651840961
0.2651814243
0.2651790537
0.2651769103
0.2651749471
0.2651731351
0.2651714574
0.2651699041
0.2651684692
0.2651671483
0.2651659377
0.2651648331
0.2651638301
0.2651629231
0.2651621056
0.2651613712
0.265160713
0.2651601252
0.2651596009
0.2651591359
0.2651587247
0.2651583631
0.2651580476
0.2651577773
0.2651575455
0.2651573474
0.2651571775
0.2651570311
0.2651569024
0.2651567882
0.2651566869
0.2651565998
0.2651565263
0.2651564641
0.2651564102
0.2651563626
0.2651563194
0.2651562799
0.2651562443
0.2651562125
0.2651561842
0.2651561592
0.265156137
0.2651561176
0.2651561009
0.2651560861
0.2651560744
0.2651560586
0.265156046
0.2651560265
0.2651560075
0.2651559876
0.2651559672
0.2651559506
0.2651559376
0.2651559275
0.2651559236
0.2651559238
0.2651559261
0.2651559259
0.2651559198
0.265155911
0.2651559017
0.2651558936
0.265155891
0.2651558944
0.2651558984
0.2651559007
0.2651559021
0.2651559046
0.2651559102
0.2651559181
0.2651559246
0.2651559306
0.2651559368
0.2651559453
0.2651559557
0.2651559648
0.2651559729
0.265155979
0.2651559818
0.2651559795
0.265155971
0.2651559599
0.2651559485
0.2651559395
0.265155932
0.2651559277
0.2651559293
0.2651559364
0.2651559408
0.2651559432
0.2651559407
0.2651559294
0.2651559215
0.2651559141
0.2651559112
0.2651559139
0.265155915
0.2651559154
0.2651559157
0.2651559192
0.2651559279
0.2651559348
0.2651559414
0.265155948
0.2651559548
0.2651559646
0.265155976
0.265155986
0.2651559945
0.2651560007
0.2651560035
0.2651560014
0.265155992
0.2651559802
0.265155967
0.2651559544
0.2651559483
0.2651559488
0.2651559648
0.2651559763
0.2651559878
0.2651559974
0.265156004
0.2651560074
0.265156008
0.2651560103
0.2651560229
0.2651560372
0.2651560479
0.2651560548
0.2651560598
0.2651560666
0.2651560791
0.2651560891
0.2651560978
0.2651561049
0.2651561111
0.2651561215
0.2651561373
0.2651561509
0.2651561638
0.2651561744
0.2651561817
0.2651561852
0.265156186
0.2651561842
0.265156177
0.2651561682
0.2651561653
0.265156175
0.2651561992
0.2651562172
0.2651562344
0.2651562488
0.2651562591
0.2651562648
0.2651562674
0.2651562727
0.2651562893
0.2651563109
0.2651563274
0.2651563406
0.2651563523
0.2651563651
0.2651563849
0.2651564057
0.265156423
0.2651564359
0.2651564461
0.265156459
0.2651564813
0.2651565032
0.2651565237
0.2651565415
0.265156556
0.2651565663
0.2651565715
0.2651565728
0.2651565694
0.2651565611
0.2651565561
0.2651565641
0.2651565926
0.2651566144
0.2651566354
0.2651566529
0.2651566657
0.2651566736
0.2651566771
0.2651566802
0.2651566964
0.2651567236
0.2651567429
0.265156758
0.2651567703
0.2651567818
0.2651568018
0.2651568274
0.2651568471
0.2651568618
0.2651568739
0.2651568867
0.2651569108
0.2651569408
0.2651569663
0.2651569887
0.265157006
0.2651570163
0.2651570209
0.2651570217
0.2651570198
0.265157013
0.2651570065
0.2651570143
0.2651570444
0.2651570796
0.2651571086
0.2651571345
0.2651571513
0.2651571576
0.2651571556
0.2651571501
0.265157167
0.2651572051
0.2651572296
0.2651572499
0.2651572655
0.2651572776
0.2651573017
0.2651573401
0.2651573682
0.2651573885
0.2651573982
0.2651574003
0.265157418
0.2651574579
0.2651574877
0.2651575146
0.2651575347
0.2651575468
0.265157554
0.2651575653
0.2651575818
0.265157591
0.265157591
0.2651575749
0.2651575775
0.2651576262
0.2651576859
0.2651577171
0.265157739
0.2651577416
0.26515771
0.2651576788
0.2651577159
0.2651578285
0.2651579063
0.2651579238
0.2651578847
0.2651578226
0.2651578491
0.2651579687
0.2651580342
0.2651580417
0.2651579891
0.2651579351
0.2651579826
0.2651581221
0.2651582162
0.2651582482
0.2651582435
0.2651582033
0.2651582226
0.2651582513
0.2651582423
0.265158262
0.26515816
0.2651579078
0.2651579133
0.2651573136
0.2651561182
0.2651530411
0.2651443825
0.2651236342
0.2650676142
0.264930138
0.264581565
0.2636987528
0.2614888104
0.2559959105
0.2428465104
0.2136261299
0.1654734161
0.1365174505
0.1273937945
0.1253314194
0.1249518205
0.1248857308
0.1248742026
0.1248721899
0.1248718384
0.124871777
0.1248717663
0.1248717644
0.1248717641
0.124871764
0.124871764
0.124871764
0.124871764
0.124871764
0.124871764
0.124871764
0.124871764
0.124871764
0.124871764
0.124871764
0.124871764
0.124871764
0.124871764
0.124871764
0.124871764
0.124871764
0.124871764
0.124871764
0.124871764
0.124871764
0.124871764
0.124871764
0.124871764
0.124871764
0.124871764
0.124871764
0.124871764
0.124871764
0.124871764
0.124871764
0.124871764
0.124871764
0.124871764
0.124871764
0.124871764
0.124871764
0.124871764
0.124871764
0.124871764
0.124871764
0.124871764
0.124871764
0.124871764
0.124871764
0.124871764
0.124871764
0.124871764
0.124871764
0.124871764
0.124871764
0.124871764
0.124871764
0.124871764
0.124871764
0.124871764
0.124871764
0.124871764
0.124871764
0.124871764
0.124871764
0.124871764
0.124871764
0.124871764
0.124871764
0.124871764
0.124871764
0.124871764
0.124871764
0.124871764
0.124871764
0.124871764
0.124871764
0.124871764
0.124871764
0.124871764
0.124871764
0.124871764
0.124871764
0.124871764
0.124871764
0.124871764
0.124871764
0.124871764
0.124871764
0.124871764
0.124871764
0.124871764
0.124871764
0.124871764
0.124871764
0.124871764
0.124871764
0.124871764
0.124871764
0.124871764
0.124871764
0.124871764
0.124871764
0.124871764
0.124871764
0.124871764
0.124871764
0.124871764
0.124871764
0.124871764
0.124871764
0.124871764
0.124871764
0.124871764
0.124871764
0.124871764
0.124871764
0.124871764
0.124871764
0.124871764
0.124871764
0.124871764
0.124871764
0.124871764
0.124871764
0.124871764
0.124871764
0.124871764
0.124871764
0.124871764
0.124871764
0.124871764
0.124871764
0.124871764
0.124871764
0.124871764
0.124871764
0.124871764
0.124871764
0.124871764
0.124871764
0.124871764
0.124871764
0.124871764
0.124871764
0.124871764
0.124871764
0.124871764
0.124871764
0.124871764
0.124871764
0.124871764
0.124871764
0.124871764
0.124871764
0.124871764
0.124871764
0.124871764
0.124871764
0.124871764
0.124871764
0.124871764
0.124871764
0.124871764
0.124871764
0.124871764
0.124871764
0.124871764
0.124871764
0.124871764
0.124871764
0.124871764
0.124871764
0.124871764
0.124871764
0.124871764
0.124871764
0.124871764
0.124871764
0.124871764
0.124871764
0.124871764
0.124871764
0.124871764
0.124871764
0.124871764
0.124871764
0.124871764
0.124871764
0.124871764
0.124871764
0.124871764
0.124871764
0.124871764
0.124871764
0.124871764
0.124871764
0.124871764
0.124871764
0.124871764
0.124871764
0.124871764
0.124871764
0.124871764
0.124871764
0.124871764
0.124871764
0.124871764
0.124871764
0.124871764
0.124871764
0.124871764
0.124871764
0.124871764
0.124871764
0.124871764
0.124871764
0.124871764
0.124871764
0.124871764
0.124871764
0.124871764
0.124871764
0.124871764
0.124871764
0.124871764
0.124871764
0.124871764
0.124871764
0.124871764
0.124871764
0.124871764
0.124871764
0.124871764
0.124871764
0.124871764
0.124871764
0.124871764
0.124871764
0.124871764
0.124871764
0.124871764
0.124871764
0.124871764
0.124871764
0.124871764
0.124871764
0.124871764
0.124871764
0.124871764
0.124871764
0.124871764
0.124871764
0.124871764
0.124871764
0.124871764
0.124871764
0.124871764
0.124871764
0.124871764
0.124871764
0.124871764
0.124871764
0.124871764
0.124871764
0.124871764
0.124871764
0.124871764
0.124871764
0.124871764
0.124871764
0.124871764
0.124871764
0.124871764
0.124871764
0.124871764
0.124871764
0.124871764
0.124871764
0.124871764
0.124871764
0.124871764
0.124871764
0.124871764
0.124871764
0.124871764
0.124871764
0.124871764
0.124871764
)
;

boundaryField
{
    sides
    {
        type            calculated;
        value           nonuniform List<scalar> 2(0.124871764 0.9989740407);
    }
    empty
    {
        type            empty;
    }
}


// ************************************************************************* //
