/*--------------------------------*- C++ -*----------------------------------*\
| =========                 |                                                 |
| \\      /  F ield         | OpenFOAM: The Open Source CFD Toolbox           |
|  \\    /   O peration     | Version:  v2012                                 |
|   \\  /    A nd           | Website:  www.openfoam.com                      |
|    \\/     M anipulation  |                                                 |
\*---------------------------------------------------------------------------*/
FoamFile
{
    version     2.0;
    format      ascii;
    class       volScalarField;
    location    "0.2";
    object      T;
}
// * * * * * * * * * * * * * * * * * * * * * * * * * * * * * * * * * * * * * //

dimensions      [0 0 0 1 0 0 0];


internalField   nonuniform List<scalar> 
2000
(
0.003487899
0.003487899
0.003487899
0.003487899
0.003487899
0.003487899
0.003487899
0.003487899
0.003487899
0.003487899
0.003487899
0.003487899
0.003487899
0.003487899
0.003487899
0.003487899
0.003487899
0.003487899
0.003487899
0.003487899
0.003487899
0.003487899
0.003487899
0.003487899
0.003487899
0.003487899
0.003487899
0.003487899
0.003487899
0.003487899
0.003487899
0.003487899
0.003487899
0.003487899
0.003487899
0.003487899
0.003487899
0.003487899
0.003487899
0.003487899
0.003487899
0.003487899
0.003487899
0.003487899
0.003487899
0.003487899
0.003487899
0.003487899
0.003487899
0.003487899
0.003487899
0.003487899
0.003487899
0.003487899
0.003487899
0.003487899
0.003487899
0.003487899
0.003487899
0.003487899
0.003487899
0.003487899
0.003487899
0.003487899
0.003487899
0.003487899
0.003487899
0.003487899
0.003487899
0.003487899
0.003487899
0.003487899
0.003487899
0.003487899
0.003487899
0.003487899
0.003487899
0.003487899
0.003487899
0.003487899
0.003487899
0.003487899
0.003487899
0.003487899
0.003487899
0.003487899
0.003487899
0.003487899
0.003487899
0.003487899
0.003487899
0.003487899
0.003487899
0.003487899
0.003487899
0.003487899
0.003487899
0.003487899
0.003487899
0.003487899
0.003487899
0.003487899
0.003487899
0.003487899
0.003487899
0.003487899
0.003487899
0.003487899
0.003487899
0.003487899
0.003487899
0.003487899
0.003487899
0.003487899
0.003487899
0.003487899
0.003487899
0.003487899
0.003487899
0.003487899
0.003487899
0.003487899
0.003487899
0.003487899
0.003487899
0.003487899
0.003487899
0.003487899
0.003487899
0.003487899
0.003487899
0.003487899
0.003487899
0.003487899
0.003487899
0.003487899
0.003487899
0.003487899
0.003487899
0.003487899
0.003487899
0.003487899
0.003487899
0.003487899
0.003487899
0.003487899
0.003487899
0.003487899
0.003487899
0.003487899
0.003487899
0.003487899
0.003487899
0.003487899
0.003487899
0.003487899
0.003487899
0.003487899
0.003487899
0.003487899
0.003487899
0.003487899
0.003487899
0.003487899
0.003487899
0.003487899
0.003487899
0.003487899
0.003487899
0.003487899
0.003487899
0.003487899
0.003487899
0.003487899
0.003487899
0.003487899
0.003487899
0.003487899
0.003487899
0.003487899
0.003487899
0.003487899
0.003487899
0.003487899
0.003487899
0.003487899
0.003487899
0.003487899
0.003487899
0.003487899
0.003487899
0.003487899
0.003487899
0.003487899
0.003487899
0.003487899
0.003487899
0.003487899
0.003487899
0.003487899
0.003487899
0.003487899
0.003487899
0.003487899
0.003487899
0.003487899
0.003487899
0.003487899
0.003487899
0.003487899
0.003487899
0.003487899
0.003487899
0.003487899
0.003487899
0.003487899
0.003487899
0.003487899
0.003487899
0.003487899
0.003487899
0.003487899
0.003487899
0.003487899
0.003487899
0.003487899
0.003487899
0.003487899
0.003487899
0.003487899
0.003487899
0.003487899
0.003487899
0.003487899
0.003487899
0.003487899
0.003487899
0.003487899
0.003487899
0.003487899
0.003487899
0.003487899
0.003487899
0.003487899
0.003487899
0.003487899
0.003487899
0.003487899
0.003487899
0.003487899
0.003487899
0.003487899
0.003487899
0.003487899
0.003487899
0.003487899
0.003487899
0.003487899
0.003487899
0.003487899
0.003487899
0.003487899
0.003487899
0.003487899
0.003487899
0.003487899
0.003487899
0.003487899
0.003487899
0.003487899
0.003487899
0.003487899
0.003487899
0.003487899
0.003487899
0.003487899
0.003487899
0.003487899
0.003487899
0.003487899
0.003487899
0.003487899
0.003487899
0.003487899
0.003487899
0.003487899
0.003487899
0.003487899
0.003487899
0.003487899
0.003487899
0.003487899
0.003487899
0.003487899
0.003487899
0.003487899
0.003487899
0.003487899
0.003487899
0.003487899
0.003487899
0.003487899
0.003487899
0.003487899
0.003487899
0.003487899
0.003487899
0.003487899
0.003487899
0.003487899
0.003487899
0.003487899
0.003487899
0.003487899
0.003487899
0.003487899
0.003487899
0.003487899
0.003487899
0.003487899
0.003487899
0.003487899
0.003487899
0.003487899
0.003487899
0.003487899
0.003487899
0.003487899
0.003487899
0.003487899
0.003487899
0.003487899
0.003487899
0.003487899
0.003487899
0.003487899
0.003487899
0.003487899
0.003487899
0.003487899
0.003487899
0.003487899
0.003487899
0.003487899
0.003487899
0.003487899
0.003487899
0.003487899
0.003487899
0.003487899
0.003487899
0.003487899
0.003487899
0.003487899
0.003487899
0.003487899
0.003487899
0.003487899
0.003487899
0.003487899
0.003487899
0.003487899
0.003487899
0.003487899
0.003487899
0.003487899
0.003487899
0.003487899
0.003487899
0.003487899
0.003487899
0.003487899
0.003487899
0.003487899
0.003487899
0.003487899
0.003487899
0.003487899
0.003487899
0.003487899
0.003487899
0.003487899
0.003487899
0.003487899
0.003487899
0.003487899
0.003487899
0.003487899
0.003487899
0.003487899
0.003487899
0.003487899
0.003487899
0.003487899
0.003487899
0.003487899
0.003487899
0.003487899
0.003487899
0.003487899
0.003487899
0.003487899
0.003487899
0.003487899
0.003487899
0.003487899
0.003487899
0.003487899
0.003487899
0.003487899
0.003487899
0.003487899
0.003487899
0.003487899
0.003487899
0.003487899
0.003487899
0.003487899
0.003487899
0.003487899
0.003487899
0.003487899
0.003487899
0.003487899
0.003487899
0.003487899
0.003487899
0.003487899
0.003487899
0.003487899
0.003487899
0.003487899
0.003487899
0.003487899
0.003487899
0.003487899
0.003487899
0.003487899
0.003487899
0.003487899
0.003487899
0.003487899
0.003487899
0.003487899
0.003487899
0.003487899
0.003487899
0.003487899
0.003487899
0.003487899
0.003487899
0.003487899
0.003487899
0.003487899
0.003487899
0.003487899
0.003487899
0.003487899
0.003487899
0.003487899
0.003487899
0.003487899
0.003487899
0.003487899
0.003487899
0.003487899
0.003487899
0.003487898999
0.003487898999
0.003487898998
0.003487898997
0.003487898996
0.003487898994
0.003487898991
0.003487898986
0.003487898979
0.003487898968
0.003487898953
0.00348789893
0.003487898898
0.00348789885
0.003487898781
0.003487898683
0.003487898542
0.003487898341
0.003487898057
0.003487897658
0.003487897099
0.003487896321
0.003487895244
0.003487893761
0.003487891731
0.003487888968
0.003487885229
0.0034878802
0.003487873477
0.003487864546
0.003487852757
0.003487837295
0.003487817151
0.003487791083
0.003487757582
0.003487714832
0.003487660668
0.003487592548
0.003487507514
0.003487402175
0.003487272692
0.003487114787
0.00348692376
0.003486694536
0.003486421731
0.003486099742
0.003485722861
0.003485285407
0.00348478187
0.003484207072
0.003483556317
0.00348282554
0.003482011433
0.00348111155
0.003480124376
0.00347904936
0.003477886911
0.003476638356
0.003475305863
0.003473892342
0.003472401323
0.003470836817
0.003469203187
0.003467505014
0.00346574697
0.003463933717
0.003462069818
0.003460159658
0.003458207402
0.003456216952
0.003454191928
0.003452135662
0.003450051198
0.003447941297
0.00344580846
0.003443654936
0.003441482747
0.003439293704
0.003437089431
0.003434871379
0.003432640844
0.003430398986
0.00342814684
0.003425885329
0.003423615277
0.003421337421
0.003419052618
0.003416761406
0.00341446427
0.003412161599
0.003409853734
0.003407540967
0.003405223676
0.003402902489
0.003400578006
0.003398250576
0.003395920441
0.003393587758
0.00339125269
0.003388915389
0.003386576001
0.003384234668
0.003381891523
0.003379546692
0.003377200292
0.003374852434
0.003372503221
0.003370152749
0.003367801111
0.003365448392
0.003363094672
0.00336074003
0.003358384536
0.00335602826
0.003353671268
0.003351313621
0.003348955379
0.003346596599
0.003344237334
0.003341877636
0.003339517556
0.003337157138
0.003334796428
0.003332435468
0.003330074295
0.003327712945
0.003325351451
0.003322989844
0.003320628154
0.003318266411
0.003315904643
0.003313542888
0.003311181185
0.003308819561
0.003306458043
0.003304096656
0.003301735424
0.003299374369
0.003297013514
0.00329465288
0.003292292487
0.003289932354
0.003287572501
0.003285212946
0.003282853705
0.003280494797
0.003278136236
0.003275778039
0.00327342022
0.003271062794
0.003268705775
0.003266349175
0.003263993009
0.003261637287
0.003259282023
0.003256927228
0.003254572912
0.003252219088
0.003249865764
0.003247512951
0.003245160659
0.003242808896
0.003240457673
0.003238106997
0.003235756877
0.003233407321
0.003231058337
0.003228709933
0.003226362115
0.003224014891
0.003221668267
0.003219322251
0.003216976848
0.003214632065
0.003212287908
0.003209944382
0.003207601494
0.003205259248
0.003202917649
0.003200576704
0.003198236416
0.00319589679
0.003193557832
0.003191219545
0.003188881934
0.003186545003
0.003184208756
0.003181873197
0.00317953833
0.003177204158
0.003174870686
0.003172537916
0.003170205852
0.003167874497
0.003165543854
0.003163213927
0.003160884719
0.003158556231
0.003156228468
0.003153901432
0.003151575125
0.00314924955
0.00314692471
0.003144600606
0.003142277242
0.00313995462
0.003137632741
0.003135311608
0.003132991223
0.003130671588
0.003128352705
0.003126034576
0.003123717203
0.003121400587
0.00311908473
0.003116769635
0.003114455301
0.003112141732
0.003109828929
0.003107516892
0.003105205624
0.003102895127
0.0031005854
0.003098276446
0.003095968266
0.003093660861
0.003091354232
0.003089048381
0.003086743308
0.003084439015
0.003082135502
0.003079832771
0.003077530823
0.003075229658
0.003072929277
0.003070629682
0.003068330872
0.00306603285
0.003063735615
0.003061439168
0.00305914351
0.003056848642
0.003054554564
0.003052261277
0.003049968782
0.003047677078
0.003045386167
0.00304309605
0.003040806725
0.003038518194
0.003036230458
0.003033943517
0.00303165737
0.003029372019
0.003027087464
0.003024803705
0.003022520742
0.003020238575
0.003017957206
0.003015676633
0.003013396858
0.00301111788
0.003008839699
0.003006562317
0.003004285732
0.003002009944
0.002999734955
0.002997460764
0.002995187372
0.002992914777
0.00299064298
0.002988371982
0.002986101782
0.00298383238
0.002981563777
0.002979295971
0.002977028964
0.002974762755
0.002972497344
0.002970232732
0.002967968917
0.0029657059
0.002963443681
0.00296118226
0.002958921636
0.00295666181
0.002954402782
0.002952144551
0.002949887117
0.002947630481
0.002945374642
0.0029431196
0.002940865355
0.002938611907
0.002936359256
0.002934107401
0.002931856343
0.002929606082
0.002927356617
0.002925107949
0.002922860077
0.002920613001
0.002918366722
0.002916121239
0.002913876552
0.002911632662
0.002909389568
0.00290714727
0.002904905769
0.002902665063
0.002900425154
0.002898186042
0.002895947725
0.002893710205
0.002891473481
0.002889237553
0.002887002421
0.002884768085
0.002882534545
0.002880301802
0.002878069854
0.002875838703
0.002873608348
0.00287137879
0.002869150029
0.002866922066
0.0028646949
0.002862468534
0.002860242968
0.002858018203
0.00285579424
0.002853571081
0.002851348728
0.002849127183
0.002846906447
0.002844686522
0.002842467411
0.002840249115
0.002838031636
0.002835814977
0.00283359914
0.002831384129
0.002829169947
0.0028269566
0.002824744095
0.00282253244
0.002820321642
0.002818111709
0.002815902646
0.002813694456
0.00281148714
0.002809280699
0.002807075136
0.00280487045
0.002802666639
0.002800463698
0.002798261635
0.002796060443
0.002793860126
0.002791660712
0.002789462187
0.002787264543
0.002785067837
0.002782872024
0.002780677068
0.002778483072
0.002776290001
0.002774097776
0.002771906548
0.00276971633
0.002767526931
0.002765338493
0.002763151098
0.002760964549
0.002758778875
0.00275659432
0.002754410759
0.002752227977
0.002750046269
0.002747865605
0.002745685729
0.00274350678
0.002741329042
0.002739152376
0.002736976458
0.00273480171
0.002732628073
0.002730455157
0.002728283178
0.002726112479
0.002723942927
0.002721774056
0.002719606289
0.002717439642
0.002715273824
0.002713108907
0.002710945262
0.002708782971
0.002706621372
0.002704460612
0.002702301087
0.002700142686
0.002697985269
0.002695829014
0.002693674465
0.002691520953
0.002689367713
0.002687215787
0.002685065206
0.002682916066
0.002680767874
0.002678621213
0.002676475997
0.002674330855
0.002672186732
0.002670044134
0.002667903291
0.002665763692
0.002663625396
0.002661488361
0.002659352361
0.002657216195
0.002655081888
0.002652950117
0.002650820246
0.00264869128
0.002646562217
0.002644434686
0.002642310181
0.002640185677
0.002638062289
0.002635942553
0.00263382281
0.002631704196
0.002629586696
0.002627469175
0.002625356103
0.002623245397
0.002621134087
0.00261902335
0.002616913173
0.002614807332
0.002612703023
0.002610599156
0.002608497706
0.00260639608
0.002604294536
0.00260219734
0.002600102587
0.002598008835
0.002595915499
0.002593822561
0.002591730987
0.002589644383
0.002587558273
0.002585474152
0.002583389506
0.002581304617
0.002579223949
0.002577148208
0.002575071407
0.002572994432
0.00257091784
0.002568846726
0.002566778184
0.00256470924
0.002562639785
0.002560573112
0.00255851258
0.002556450893
0.002554388118
0.002552327973
0.002550274944
0.002548220387
0.002546164477
0.002544113
0.002542067286
0.0025400205
0.002537972539
0.002535933042
0.002533894472
0.00253185623
0.002529821471
0.002527795143
0.002525766987
0.002523742748
0.002521728212
0.002519714114
0.002517705693
0.00251570277
0.002513705947
0.002511715931
0.00250973424
0.002507762415
0.002505802387
0.002503856307
0.002501926949
0.002500017725
0.002498132951
0.002496278139
0.002494460252
0.00249268819
0.002490972809
0.00248932758
0.002487768149
0.002486312387
0.002484979246
0.002483786956
0.002482751264
0.002481882289
0.002481182896
0.00248064673
0.002480259091
0.002479997687
0.002479836767
0.002479749833
0.002479711258
0.00247970194
0.002479704619
0.002479721634
0.002479766375
0.002479844491
0.002479929457
0.002479985872
0.002480026816
0.002480060003
0.002480088272
0.002480112753
0.002480134099
0.002480152762
0.002480169043
0.002480183125
0.002480195091
0.002480205006
0.00248021298
0.002480219208
0.002480223985
0.002480227697
0.002480230719
0.002480233402
0.002480235989
0.002480238547
0.00248024116
0.002480243806
0.002480246219
0.002480248249
0.002480250087
0.002480251754
0.002480253426
0.002480254921
0.002480256347
0.002480257383
0.002480258349
0.002480258885
0.002480259114
0.002480259418
0.00248025971
0.002480259989
0.002480260186
0.002480260353
0.002480260486
0.002480260569
0.002480260647
0.002480260725
0.002480260755
0.002480260743
0.002480260702
0.002480260636
0.002480260558
0.002480260512
0.002480260451
0.002480260341
0.002480260141
0.002480259858
0.002480259513
0.002480259119
0.002480258686
0.002480258212
0.002480257689
0.002480257169
0.002480256772
0.002480256461
0.002480256211
0.00248025601
0.002480255841
0.002480255675
0.002480255506
0.002480255327
0.002480255128
0.00248025489
0.002480254617
0.002480254339
0.002480254095
0.0024802539
0.002480253756
0.00248025365
0.00248025359
0.002480253582
0.002480253591
0.002480253621
0.002480253679
0.002480253766
0.002480253876
0.002480254004
0.00248025414
0.002480254278
0.002480254416
0.002480254558
0.00248025471
0.002480254881
0.002480255077
0.002480255296
0.002480255536
0.00248025579
0.002480256061
0.002480256353
0.002480256666
0.002480256999
0.002480257347
0.002480257707
0.002480258074
0.002480258445
0.002480258814
0.002480259171
0.002480259522
0.002480259874
0.002480260228
0.002480260584
0.002480260948
0.002480261327
0.002480261724
0.002480262144
0.002480262594
0.002480263077
0.002480263429
0.002480263841
0.002480264294
0.002480264777
0.002480265304
0.002480265608
0.002480265968
0.002480266362
0.002480266762
0.002480267159
0.002480267597
0.002480268072
0.002480268576
0.002480269094
0.002480269499
0.002480269979
0.002480270524
0.002480271117
0.002480271499
0.002480271948
0.002480272437
0.002480272948
0.002480273482
0.002480273839
0.002480274281
0.002480274813
0.002480275446
0.002480275757
0.002480276215
0.002480276738
0.002480277209
0.002480277744
0.00248027834
0.002480279
0.002480279766
0.002480280162
0.002480280677
0.002480281261
0.002480281855
0.002480282409
0.002480282816
0.00248028332
0.002480283959
0.002480284371
0.00248028493
0.002480285561
0.0024802861
0.002480286702
0.002480287359
0.002480288078
0.002480288908
0.002480289313
0.002480289894
0.002480290613
0.002480291103
0.002480291721
0.002480292401
0.002480293
0.002480293625
0.002480294261
0.002480294915
0.002480295456
0.002480296084
0.0024802968
0.002480297403
0.002480298125
0.002480298957
0.00248029961
0.002480300365
0.002480301199
0.00248030183
0.002480302556
0.002480303333
0.002480304043
0.002480304807
0.002480305604
0.002480306412
0.00248030717
0.002480307947
0.002480308764
0.002480309392
0.002480310119
0.002480310957
0.002480311597
0.002480312382
0.002480313289
0.002480314004
0.002480314831
0.002480315709
0.002480316545
0.002480317398
0.002480318271
0.002480319182
0.002480320118
0.002480321028
0.002480321978
0.002480322963
0.002480323975
0.002480324933
0.00248032593
0.00248032696
0.002480327925
0.002480328941
0.002480330007
0.002480330974
0.002480332006
0.002480333068
0.00248033412
0.00248033515
0.002480336185
0.002480337232
0.002480338295
0.00248033936
0.002480340419
0.002480341515
0.002480342649
0.0024803438
0.002480344959
0.00248034615
0.002480347361
0.002480348588
0.002480349823
0.002480351075
0.002480352335
0.002480353617
0.002480354916
0.002480356246
0.002480357595
0.002480358982
0.002480360398
0.002480361856
0.002480363337
0.002480364852
0.002480366389
0.002480367952
0.002480369526
0.002480371113
0.002480372705
0.002480374303
0.002480375905
0.002480377512
0.002480379126
0.002480380752
0.00248038239
0.00248038405
0.002480385727
0.002480387437
0.002480389168
0.002480390939
0.002480392736
0.002480394576
0.002480396442
0.002480398351
0.002480400286
0.002480402262
0.002480404263
0.002480406303
0.002480408367
0.002480410472
0.002480412601
0.002480414776
0.002480416981
0.002480419239
0.002480421532
0.002480423887
0.002480426279
0.002480428738
0.002480431236
0.0024804338
0.002480436402
0.002480439068
0.002480441772
0.002480444538
0.002480447343
0.002480450213
0.002480453123
0.002480456106
0.002480459134
0.002480462243
0.002480465403
0.002480468652
0.002480471956
0.002480475356
0.002480478815
0.002480482374
0.002480485994
0.002480489715
0.0024804935
0.00248049739
0.002480501344
0.002480505407
0.002480509537
0.002480513782
0.002480518099
0.00248052254
0.002480527058
0.002480531714
0.002480536457
0.002480541354
0.002480546348
0.002480551516
0.002480556791
0.002480562257
0.002480567838
0.002480573625
0.002480579533
0.002480585655
0.002480591905
0.002480598373
0.002480604973
0.002480611797
0.002480618758
0.002480625952
0.002480633289
0.002480640878
0.002480648622
0.002480656649
0.002480664852
0.002480673389
0.002480682135
0.002480691298
0.002480700723
0.00248071071
0.002480721049
0.002480732216
0.002480743903
0.002480756923
0.002480770781
0.002480786933
0.002480804536
0.002480826249
0.002480850573
0.002480882387
0.002480918992
0.00248096927
0.002481028353
0.002481112176
0.002481212035
0.002481355972
0.002481528647
0.002481778289
0.002482078385
0.002482509781
0.002483027701
0.00248376393
0.002484644813
0.00248587881
0.002487348252
0.002489372447
0.002491769375
0.002495011555
0.002498827236
0.002503890159
0.002509810149
0.002517509888
0.002526452723
0.002537847693
0.002550990738
0.002567390598
0.002586170206
0.002609111721
0.002635182561
0.002666358839
0.002701496884
0.002742627326
0.002788562941
0.00284119413
0.002899365601
0.002964596895
0.003035844861
0.003113966609
0.003198127438
0.003288232415
0.003382380363
0.003471986649
0.003551857309
0.003622353447
0.003683834402
0.00373683613
0.003782036551
0.003820191822
0.003852088927
0.003878508978
0.003900200013
0.003917858343
0.003932117142
0.003943540777
0.003952623676
0.003959792438
0.003965410077
0.003969781657
0.00397316058
0.003975755091
0.003977734595
0.003979235605
0.003980367156
0.003981215587
0.003981848731
0.003982319464
0.003982668687
0.003982927783
0.003983120638
0.003983265271
0.003983375144
0.003983460201
0.003983527686
0.003983582801
0.003983629212
0.003983669451
0.003983705208
0.003983737576
0.00398376725
0.003983794653
0.003983820039
0.003983843559
0.003983865306
0.00398388535
0.003983903753
0.00398392057
0.003983935865
0.00398394971
0.003983962186
0.003983973376
0.003983983367
0.003983992243
0.003984000105
0.003984007034
0.003984013111
0.00398401843
0.003984023085
0.003984027158
0.003984030719
0.00398403383
0.003984036537
0.003984038874
0.003984040893
0.003984042637
0.003984044153
0.003984045479
0.003984046681
0.003984047797
0.003984048827
0.003984049767
0.003984050627
0.003984051419
0.003984052157
0.003984052851
0.003984053502
0.003984054108
0.003984054669
0.003984055189
0.003984055673
0.00398405612
0.003984056521
0.003984056891
0.003984057202
0.003984057434
0.003984057669
0.00398405785
0.003984058005
0.003984058167
0.003984058333
0.003984058509
0.003984058713
0.003984058936
0.003984059164
0.003984059376
0.003984059548
0.003984059705
0.003984059855
0.003984060006
0.003984060179
0.003984060377
0.003984060568
0.003984060728
0.003984060871
0.003984061005
0.003984061151
0.0039840613
0.003984061429
0.003984061552
0.003984061674
0.003984061807
0.003984061947
0.003984062084
0.003984062216
0.003984062338
0.003984062443
0.003984062524
0.003984062555
0.003984062584
0.003984062623
0.003984062676
0.003984062748
0.003984062845
0.00398406299
0.003984063175
0.003984063368
0.003984063562
0.003984063714
0.003984063865
0.003984064042
0.00398406424
0.003984064472
0.003984064734
0.003984064977
0.003984065181
0.003984065355
0.003984065531
0.003984065712
0.003984065856
0.003984065978
0.003984066086
0.003984066194
0.003984066316
0.003984066444
0.003984066571
0.003984066697
0.003984066819
0.003984066941
0.003984067047
0.003984067132
0.003984067232
0.003984067259
0.003984067296
0.003984067341
0.003984067407
0.003984067537
0.003984067633
0.003984067708
0.003984067762
0.003984067789
0.003984067792
0.00398406779
0.003984067808
0.003984067886
0.003984067976
0.00398406807
0.003984068165
0.003984068265
0.003984068384
0.003984068534
0.003984068674
0.003984068795
0.003984068897
0.003984068989
0.003984069101
0.003984069234
0.003984069355
0.003984069466
0.003984069559
0.003984069626
0.003984069657
0.003984069655
0.003984069634
0.003984069572
0.003984069495
0.003984069441
0.003984069476
0.003984069558
0.003984069615
0.003984069665
0.003984069695
0.00398406969
0.00398406967
0.003984069638
0.003984069621
0.003984069682
0.003984069763
0.003984069811
0.003984069839
0.003984069861
0.003984069895
0.003984069971
0.003984070053
0.00398407012
0.003984070168
0.003984070208
0.003984070268
0.003984070377
0.003984070484
0.003984070579
0.003984070657
0.003984070706
0.003984070714
0.003984070699
0.00398407067
0.003984070608
0.003984070522
0.003984070476
0.003984070519
0.003984070656
0.003984070767
0.003984070867
0.003984070945
0.003984070977
0.003984070964
0.003984070935
0.003984070903
0.003984070973
0.003984071084
0.003984071165
0.003984071225
0.003984071274
0.003984071329
0.003984071432
0.003984071555
0.003984071639
0.003984071681
0.003984071694
0.003984071717
0.003984071803
0.003984071913
0.003984072016
0.003984072109
0.003984072189
0.003984072246
0.003984072251
0.00398407224
0.003984072202
0.003984072123
0.003984072045
0.003984072022
0.003984072138
0.003984072274
0.00398407238
0.003984072474
0.003984072531
0.003984072539
0.00398407252
0.0039840725
0.003984072604
0.003984072792
0.00398407292
0.00398407299
0.003984072991
0.003984072992
0.003984073062
0.003984073193
0.00398407329
0.003984073354
0.003984073394
0.003984073444
0.003984073588
0.003984073828
0.003984074014
0.003984074156
0.003984074191
0.003984074167
0.003984074116
0.003984074057
0.003984074059
0.003984074024
0.003984073957
0.003984073877
0.003984073952
0.003984074315
0.003984074739
0.003984074995
0.00398407506
0.003984075011
0.003984074701
0.003984074385
0.003984074548
0.003984075048
0.003984075282
0.003984075276
0.003984075024
0.003984074845
0.003984075177
0.003984076055
0.003984076593
0.003984076637
0.003984076254
0.003984075831
0.003984076
0.003984076505
0.003984076628
0.003984076544
0.003984076369
0.003984076228
0.003984076473
0.003984076855
0.003984077308
0.003984077731
0.003984077162
0.003984076465
0.003984075835
0.003984072396
0.003984065472
0.003984047832
0.003984001357
0.003983887469
0.00398358714
0.003982845781
0.003980963348
0.003976189414
0.003964138425
0.003933708179
0.003857653627
0.003672803346
0.003298441405
0.002945941557
0.002818226358
0.002794419902
0.002791025807
0.002790442246
0.002790340517
0.002790322757
0.002790319656
0.002790319115
0.00279031902
0.002790319003
0.002790319001
0.002790319
0.002790319
0.002790319
0.002790319
0.002790319
0.002790319
0.002790319
0.002790319
0.002790319
0.002790319
0.002790319
0.002790319
0.002790319
0.002790319
0.002790319
0.002790319
0.002790319
0.002790319
0.002790319
0.002790319
0.002790319
0.002790319
0.002790319
0.002790319
0.002790319
0.002790319
0.002790319
0.002790319
0.002790319
0.002790319
0.002790319
0.002790319
0.002790319
0.002790319
0.002790319
0.002790319
0.002790319
0.002790319
0.002790319
0.002790319
0.002790319
0.002790319
0.002790319
0.002790319
0.002790319
0.002790319
0.002790319
0.002790319
0.002790319
0.002790319
0.002790319
0.002790319
0.002790319
0.002790319
0.002790319
0.002790319
0.002790319
0.002790319
0.002790319
0.002790319
0.002790319
0.002790319
0.002790319
0.002790319
0.002790319
0.002790319
0.002790319
0.002790319
0.002790319
0.002790319
0.002790319
0.002790319
0.002790319
0.002790319
0.002790319
0.002790319
0.002790319
0.002790319
0.002790319
0.002790319
0.002790319
0.002790319
0.002790319
0.002790319
0.002790319
0.002790319
0.002790319
0.002790319
0.002790319
0.002790319
0.002790319
0.002790319
0.002790319
0.002790319
0.002790319
0.002790319
0.002790319
0.002790319
0.002790319
0.002790319
0.002790319
0.002790319
0.002790319
0.002790319
0.002790319
0.002790319
0.002790319
0.002790319
0.002790319
0.002790319
0.002790319
0.002790319
0.002790319
0.002790319
0.002790319
0.002790319
0.002790319
0.002790319
0.002790319
0.002790319
0.002790319
0.002790319
0.002790319
0.002790319
0.002790319
0.002790319
0.002790319
0.002790319
0.002790319
0.002790319
0.002790319
0.002790319
0.002790319
0.002790319
0.002790319
0.002790319
0.002790319
0.002790319
0.002790319
0.002790319
0.002790319
0.002790319
0.002790319
0.002790319
0.002790319
0.002790319
0.002790319
0.002790319
0.002790319
0.002790319
0.002790319
0.002790319
0.002790319
0.002790319
0.002790319
0.002790319
0.002790319
0.002790319
0.002790319
0.002790319
0.002790319
0.002790319
0.002790319
0.002790319
0.002790319
0.002790319
0.002790319
0.002790319
0.002790319
0.002790319
0.002790319
0.002790319
0.002790319
0.002790319
0.002790319
0.002790319
0.002790319
0.002790319
0.002790319
0.002790319
0.002790319
0.002790319
0.002790319
0.002790319
0.002790319
0.002790319
0.002790319
0.002790319
0.002790319
0.002790319
0.002790319
0.002790319
0.002790319
0.002790319
0.002790319
0.002790319
0.002790319
0.002790319
0.002790319
0.002790319
0.002790319
0.002790319
0.002790319
0.002790319
0.002790319
0.002790319
0.002790319
0.002790319
0.002790319
0.002790319
0.002790319
0.002790319
0.002790319
0.002790319
0.002790319
0.002790319
0.002790319
0.002790319
0.002790319
0.002790319
0.002790319
0.002790319
0.002790319
0.002790319
0.002790319
0.002790319
0.002790319
0.002790319
0.002790319
0.002790319
0.002790319
0.002790319
0.002790319
0.002790319
0.002790319
0.002790319
0.002790319
0.002790319
0.002790319
0.002790319
0.002790319
0.002790319
0.002790319
0.002790319
0.002790319
0.002790319
0.002790319
0.002790319
0.002790319
0.002790319
0.002790319
0.002790319
0.002790319
0.002790319
0.002790319
0.002790319
0.002790319
0.002790319
0.002790319
0.002790319
0.002790319
0.002790319
0.002790319
0.002790319
0.002790319
0.002790319
0.002790319
0.002790319
0.002790319
0.002790319
0.002790319
0.002790319
0.002790319
0.002790319
0.002790319
0.002790319
0.002790319
0.002790319
0.002790319
0.002790319
0.002790319
0.002790319
0.002790319
0.002790319
0.002790319
)
;

boundaryField
{
    sides
    {
        type            zeroGradient;
    }
    empty
    {
        type            empty;
    }
}


// ************************************************************************* //
