/*--------------------------------*- C++ -*----------------------------------*\
| =========                 |                                                 |
| \\      /  F ield         | OpenFOAM: The Open Source CFD Toolbox           |
|  \\    /   O peration     | Version:  v2012                                 |
|   \\  /    A nd           | Website:  www.openfoam.com                      |
|    \\/     M anipulation  |                                                 |
\*---------------------------------------------------------------------------*/
FoamFile
{
    version     2.0;
    format      ascii;
    class       volVectorField;
    location    "0.2";
    object      U;
}
// * * * * * * * * * * * * * * * * * * * * * * * * * * * * * * * * * * * * * //

dimensions      [0 1 -1 0 0 0 0];


internalField   nonuniform List<vector> 
2000
(
(-4.161281764e-16 0 0)
(1.954349032e-15 0 0)
(1.153204866e-15 0 0)
(7.026943997e-16 0 0)
(8.320457929e-15 0 0)
(1.294193186e-15 0 0)
(9.554778112e-16 0 0)
(-1.092662782e-17 0 0)
(-2.213372111e-16 0 0)
(-3.099278993e-16 0 0)
(1.958365276e-15 0 0)
(3.415296504e-15 0 0)
(1.602211035e-15 0 0)
(7.305403842e-15 0 0)
(4.932729562e-15 0 0)
(8.607527584e-15 0 0)
(9.17154736e-16 0 0)
(-5.23293891e-15 0 0)
(-9.546924777e-16 0 0)
(-2.832532497e-16 0 0)
(1.656556801e-15 0 0)
(-5.646516767e-15 0 0)
(-2.198196729e-15 0 0)
(-2.568618198e-15 0 0)
(2.866994604e-15 0 0)
(1.864479651e-15 0 0)
(-3.933877955e-15 0 0)
(5.213715902e-16 0 0)
(-1.517424317e-15 0 0)
(-1.03073029e-15 0 0)
(6.772838805e-16 0 0)
(2.051224066e-15 0 0)
(4.046747136e-15 0 0)
(8.956459483e-16 0 0)
(-2.479720879e-15 0 0)
(-9.339498662e-15 0 0)
(-3.892159557e-15 0 0)
(2.780851591e-17 0 0)
(-4.309026372e-15 0 0)
(4.183025888e-15 0 0)
(7.125362256e-15 0 0)
(1.664326305e-15 0 0)
(9.554557549e-16 0 0)
(-2.143336461e-16 0 0)
(-4.509406895e-15 0 0)
(-1.895714148e-15 0 0)
(-3.499787789e-15 0 0)
(-3.447353092e-15 0 0)
(-7.828992574e-15 0 0)
(-2.029959001e-15 0 0)
(-1.503548393e-15 0 0)
(-5.735835152e-15 0 0)
(-7.145380365e-15 0 0)
(-1.052844809e-14 0 0)
(-1.496818568e-14 0 0)
(-1.229839121e-14 0 0)
(-4.861314309e-15 0 0)
(-6.677107971e-15 0 0)
(-1.137735689e-14 0 0)
(-8.130606438e-15 0 0)
(-9.466066042e-15 0 0)
(-3.046002233e-15 0 0)
(-9.068434974e-15 0 0)
(-3.620518125e-15 0 0)
(-4.174025066e-15 0 0)
(-7.358208089e-15 0 0)
(-4.889794874e-15 0 0)
(-1.012529837e-14 0 0)
(-9.985381617e-15 0 0)
(-9.546999509e-15 0 0)
(-1.281086723e-14 0 0)
(-1.097508697e-14 0 0)
(-9.730068347e-15 0 0)
(-8.163841519e-15 0 0)
(-8.088052038e-15 0 0)
(-1.352591509e-14 0 0)
(-1.069806837e-14 0 0)
(-8.077684097e-15 0 0)
(-7.300432366e-15 0 0)
(-8.804290129e-15 0 0)
(-1.501207104e-14 0 0)
(-1.057240628e-14 0 0)
(-3.213909961e-15 0 0)
(-1.32415988e-14 0 0)
(-1.321032765e-14 0 0)
(-1.696348406e-14 0 0)
(-1.973911449e-14 0 0)
(-1.429232341e-14 0 0)
(-4.820654386e-15 0 0)
(-3.880053264e-15 0 0)
(-3.757836411e-15 0 0)
(-2.282810857e-15 0 0)
(1.059947693e-16 0 0)
(2.242521555e-16 0 0)
(1.166670742e-15 0 0)
(-8.155708353e-16 0 0)
(2.662509592e-15 0 0)
(1.665043725e-15 0 0)
(5.091266567e-15 0 0)
(-1.100476287e-15 0 0)
(-4.084382134e-15 0 0)
(3.34149526e-18 0 0)
(3.394143035e-15 0 0)
(8.095098702e-16 0 0)
(2.764437698e-15 0 0)
(7.582372541e-16 0 0)
(3.435539512e-15 0 0)
(1.037987216e-15 0 0)
(6.332935623e-16 0 0)
(-1.648659228e-15 0 0)
(-1.186891173e-15 0 0)
(-4.358786587e-15 0 0)
(-3.260101028e-15 0 0)
(-4.06677986e-15 0 0)
(-8.601962862e-16 0 0)
(-4.520676241e-15 0 0)
(1.898692077e-15 0 0)
(-2.350629033e-15 0 0)
(2.194358187e-15 0 0)
(1.680456549e-15 0 0)
(8.641955848e-15 0 0)
(6.311410483e-15 0 0)
(6.57762837e-15 0 0)
(8.241445104e-15 0 0)
(6.10210304e-15 0 0)
(1.262136344e-14 0 0)
(6.763944919e-15 0 0)
(8.548394859e-15 0 0)
(4.463880782e-15 0 0)
(1.8505165e-16 0 0)
(-1.955016152e-16 0 0)
(-7.056785437e-16 0 0)
(1.482784974e-15 0 0)
(1.661912346e-15 0 0)
(2.65457055e-15 0 0)
(1.831454383e-15 0 0)
(4.477221701e-15 0 0)
(5.568811727e-15 0 0)
(-1.070738809e-15 0 0)
(-5.060523954e-15 0 0)
(-2.275402269e-15 0 0)
(-3.147275653e-15 0 0)
(-6.635222245e-16 0 0)
(5.896077113e-15 0 0)
(4.295992407e-15 0 0)
(5.778933273e-16 0 0)
(6.012264816e-15 0 0)
(6.116932046e-15 0 0)
(-5.20623343e-16 0 0)
(7.638303861e-15 0 0)
(6.181583146e-15 0 0)
(2.812324683e-15 0 0)
(1.323250749e-16 0 0)
(4.343442106e-15 0 0)
(4.013883582e-15 0 0)
(8.722013349e-15 0 0)
(6.023193133e-16 0 0)
(2.441371956e-15 0 0)
(-7.097230602e-16 0 0)
(3.495142392e-16 0 0)
(2.703661136e-15 0 0)
(6.435482574e-16 0 0)
(1.278518423e-15 0 0)
(3.552274722e-15 0 0)
(3.465109172e-15 0 0)
(1.025572867e-14 0 0)
(7.873240184e-15 0 0)
(7.756036859e-15 0 0)
(3.012316039e-15 0 0)
(4.668540485e-16 0 0)
(-3.069911407e-15 0 0)
(3.325241192e-15 0 0)
(-9.190842554e-16 0 0)
(5.479491073e-15 0 0)
(-6.087519259e-15 0 0)
(-4.599196625e-15 0 0)
(-4.890854495e-15 0 0)
(-2.974470331e-15 0 0)
(5.64905558e-15 0 0)
(-7.125551209e-15 0 0)
(-2.602460828e-15 0 0)
(-5.210446445e-15 0 0)
(-7.689489824e-15 0 0)
(-6.228559606e-15 0 0)
(5.760721732e-16 0 0)
(-3.627910271e-15 0 0)
(2.610201934e-16 0 0)
(-1.251408007e-15 0 0)
(-8.444244972e-15 0 0)
(-5.142208276e-15 0 0)
(-4.266536464e-15 0 0)
(-6.75228947e-15 0 0)
(-9.583074875e-15 0 0)
(-1.017512665e-14 0 0)
(-7.590901221e-15 0 0)
(-6.578328311e-15 0 0)
(-5.374885789e-15 0 0)
(-2.361280449e-15 0 0)
(-6.493464463e-15 0 0)
(1.77640787e-15 0 0)
(2.069338457e-15 0 0)
(6.607728206e-15 0 0)
(4.399620852e-15 0 0)
(4.796461617e-15 0 0)
(1.655787366e-15 0 0)
(2.79469799e-15 0 0)
(-3.168180657e-15 0 0)
(1.765967675e-15 0 0)
(3.299071496e-15 0 0)
(2.405182582e-15 0 0)
(6.525863816e-15 0 0)
(5.023996412e-15 0 0)
(-2.394878431e-15 0 0)
(-4.535927256e-15 0 0)
(1.581303394e-15 0 0)
(-4.7482864e-15 0 0)
(2.509066289e-15 0 0)
(2.675684208e-15 0 0)
(1.387133344e-15 0 0)
(-2.296671083e-15 0 0)
(8.95844937e-16 0 0)
(-6.132350485e-15 0 0)
(-9.968828305e-15 0 0)
(-4.97539487e-15 0 0)
(-1.185228765e-14 0 0)
(-7.280550957e-15 0 0)
(-9.699280593e-15 0 0)
(-4.936671546e-15 0 0)
(-5.755455245e-16 0 0)
(1.071881082e-17 0 0)
(-1.402887896e-15 0 0)
(1.779996432e-15 0 0)
(-5.695155916e-15 0 0)
(-1.358126734e-16 0 0)
(2.457714399e-15 0 0)
(6.933618835e-16 0 0)
(1.236456923e-15 0 0)
(4.468734246e-15 0 0)
(5.240068751e-16 0 0)
(5.149691103e-15 0 0)
(7.741269032e-15 0 0)
(8.547623123e-15 0 0)
(1.383618677e-14 0 0)
(1.424927988e-14 0 0)
(1.279635751e-14 0 0)
(1.03255673e-14 0 0)
(1.313982613e-14 0 0)
(3.190820927e-15 0 0)
(6.084264465e-15 0 0)
(8.754973572e-15 0 0)
(6.518085073e-15 0 0)
(-7.666251762e-16 0 0)
(5.126393149e-15 0 0)
(3.845511747e-15 0 0)
(7.204127319e-15 0 0)
(9.805302791e-15 0 0)
(4.381341071e-15 0 0)
(3.939585321e-15 0 0)
(-2.403256469e-15 0 0)
(1.872811652e-15 0 0)
(-9.210641438e-16 0 0)
(-7.71002675e-17 0 0)
(3.291727301e-15 0 0)
(1.961891347e-15 0 0)
(-1.19494299e-15 0 0)
(2.470285328e-15 0 0)
(-1.102783141e-15 0 0)
(-1.746874293e-15 0 0)
(2.019500888e-15 0 0)
(-2.584369935e-15 0 0)
(3.451951824e-15 0 0)
(3.72689296e-16 0 0)
(2.99545984e-15 0 0)
(4.486084449e-15 0 0)
(3.111533915e-15 0 0)
(8.689910462e-15 0 0)
(8.939318729e-15 0 0)
(1.033477559e-14 0 0)
(1.423720404e-14 0 0)
(1.196341218e-14 0 0)
(1.259706174e-14 0 0)
(5.741120917e-15 0 0)
(3.496455497e-15 0 0)
(3.241461636e-15 0 0)
(-5.021009555e-15 0 0)
(-7.360134757e-15 0 0)
(1.543133184e-15 0 0)
(2.481646469e-15 0 0)
(1.954626845e-15 0 0)
(-4.190357962e-15 0 0)
(-3.036470628e-15 0 0)
(-4.435745223e-15 0 0)
(-5.922542531e-15 0 0)
(-4.433381162e-15 0 0)
(-4.763569544e-15 0 0)
(-3.137888481e-15 0 0)
(-7.719764675e-15 0 0)
(-8.208425687e-15 0 0)
(-1.064465131e-14 0 0)
(-1.122570153e-14 0 0)
(-9.504892381e-15 0 0)
(-1.198916356e-14 0 0)
(-3.671597191e-15 0 0)
(-4.268265228e-15 0 0)
(-5.403854986e-15 0 0)
(-4.791846215e-15 0 0)
(-3.829832382e-15 0 0)
(-5.63992416e-15 0 0)
(-1.80037746e-15 0 0)
(-8.184806129e-15 0 0)
(-8.792434803e-15 0 0)
(-1.417676329e-14 0 0)
(-1.189894096e-14 0 0)
(-1.215122181e-14 0 0)
(-1.243955292e-14 0 0)
(-9.661544458e-15 0 0)
(-1.64207802e-14 0 0)
(-5.101626741e-15 0 0)
(-6.138943847e-15 0 0)
(-4.270915222e-15 0 0)
(-3.903251007e-16 0 0)
(-1.552145163e-16 0 0)
(4.639871845e-15 0 0)
(2.890806123e-15 0 0)
(3.450701118e-16 0 0)
(-2.163133753e-15 0 0)
(-2.000756134e-15 0 0)
(-4.164143316e-15 0 0)
(-3.603827602e-15 0 0)
(1.271512576e-15 0 0)
(2.797759764e-15 0 0)
(1.83391381e-15 0 0)
(2.183971316e-15 0 0)
(-2.041669112e-15 0 0)
(-5.695378107e-15 0 0)
(-5.55126649e-15 0 0)
(-8.590675031e-15 0 0)
(-1.138726208e-14 0 0)
(-8.410651691e-15 0 0)
(-1.048790066e-14 0 0)
(-5.023567407e-15 0 0)
(-2.999234165e-15 0 0)
(-3.6504034e-15 0 0)
(-7.545996365e-15 0 0)
(-9.775424052e-15 0 0)
(-6.541181359e-15 0 0)
(2.967895275e-15 0 0)
(3.129896723e-15 0 0)
(6.581862033e-15 0 0)
(-7.171996855e-16 0 0)
(-3.780826942e-16 0 0)
(-4.564253066e-15 0 0)
(-2.045467377e-15 0 0)
(-2.024766177e-15 0 0)
(-2.371101764e-15 0 0)
(-3.527307215e-15 0 0)
(-6.519077984e-15 0 0)
(-5.428436761e-15 0 0)
(-3.758221513e-15 0 0)
(1.124179558e-15 0 0)
(-5.18813306e-15 0 0)
(5.409496846e-15 0 0)
(2.953840079e-15 0 0)
(9.732518068e-16 0 0)
(1.197026202e-15 0 0)
(5.504227882e-15 0 0)
(7.990242614e-15 0 0)
(5.179680101e-15 0 0)
(7.265094408e-15 0 0)
(4.434111761e-15 0 0)
(6.642411905e-15 0 0)
(1.137674293e-14 0 0)
(8.033513949e-15 0 0)
(5.901628509e-15 0 0)
(3.343595266e-15 0 0)
(-6.177622706e-16 0 0)
(1.553352637e-15 0 0)
(-3.835251872e-15 0 0)
(-5.288151326e-15 0 0)
(-2.6933804e-15 0 0)
(1.91116173e-15 0 0)
(5.112014201e-15 0 0)
(1.947610967e-17 0 0)
(-4.041602239e-15 0 0)
(-3.386192949e-15 0 0)
(-4.985318455e-15 0 0)
(1.021716764e-15 0 0)
(-2.695880147e-15 0 0)
(-1.921367367e-15 0 0)
(-4.839900924e-15 0 0)
(-1.906883456e-15 0 0)
(4.643660034e-15 0 0)
(8.827106442e-15 0 0)
(1.820566933e-15 0 0)
(4.544870018e-15 0 0)
(6.874270459e-15 0 0)
(1.815747324e-15 0 0)
(6.651008339e-15 0 0)
(2.140158558e-15 0 0)
(-1.81172147e-15 0 0)
(-7.777566472e-15 0 0)
(-4.104004781e-15 0 0)
(-3.55824055e-15 0 0)
(-6.313269734e-15 0 0)
(-3.912109568e-15 0 0)
(-6.592941702e-15 0 0)
(-1.068156661e-14 0 0)
(-7.775177945e-16 0 0)
(4.330802223e-16 0 0)
(2.577238636e-15 0 0)
(-7.33358215e-15 0 0)
(-6.363804567e-15 0 0)
(-8.124011793e-15 0 0)
(-8.853822118e-15 0 0)
(-8.335826025e-15 0 0)
(-1.169135621e-14 0 0)
(-8.280037399e-15 0 0)
(-6.064808311e-15 0 0)
(-7.236046719e-15 0 0)
(-4.039221762e-15 0 0)
(-7.140870687e-15 0 0)
(-2.776216243e-15 0 0)
(-8.731825195e-16 0 0)
(1.474992328e-15 0 0)
(-4.817494551e-16 0 0)
(-1.287943575e-15 0 0)
(-5.264023429e-16 0 0)
(1.364704209e-15 0 0)
(-2.415007321e-15 0 0)
(-1.083543529e-15 0 0)
(5.171666821e-15 0 0)
(4.021714255e-15 0 0)
(-9.279018124e-16 0 0)
(-4.972462464e-15 0 0)
(-2.252966239e-15 0 0)
(-4.092245447e-15 0 0)
(3.329126859e-16 0 0)
(1.83937079e-15 0 0)
(-1.745343629e-15 0 0)
(-1.487663323e-15 0 0)
(-9.199909922e-16 0 0)
(-1.503293678e-15 0 0)
(2.380956938e-15 0 0)
(8.829941378e-16 0 0)
(3.373886476e-15 0 0)
(4.286739234e-15 0 0)
(1.232578342e-14 0 0)
(3.462751396e-14 0 0)
(5.6684311e-14 0 0)
(1.056980431e-13 0 0)
(1.880833077e-13 0 0)
(3.386109427e-13 0 0)
(5.581833867e-13 0 0)
(9.341066842e-13 0 0)
(1.537040845e-12 0 0)
(2.52192827e-12 0 0)
(4.095365887e-12 0 0)
(6.612202431e-12 0 0)
(1.062239789e-11 0 0)
(1.700519943e-11 0 0)
(2.709779111e-11 0 0)
(4.300957463e-11 0 0)
(6.799182442e-11 0 0)
(1.070620299e-10 0 0)
(1.678971033e-10 0 0)
(2.622479054e-10 0 0)
(4.079693027e-10 0 0)
(6.320998842e-10 0 0)
(9.753756284e-10 0 0)
(1.498902136e-09 0 0)
(2.293889851e-09 0 0)
(3.495858848e-09 0 0)
(5.305182624e-09 0 0)
(8.016688537e-09 0 0)
(1.206198427e-08 0 0)
(1.806982765e-08 0 0)
(2.695138868e-08 0 0)
(4.002031001e-08 0 0)
(5.916044345e-08 0 0)
(8.705886261e-08 0 0)
(1.275273578e-07 0 0)
(1.859431421e-07 0 0)
(2.698486047e-07 0 0)
(3.89761967e-07 0 0)
(5.602647218e-07 0 0)
(8.014492965e-07 0 0)
(1.140830986e-06 0 0)
(1.615852268e-06 0 0)
(2.277134655e-06 0 0)
(3.192663161e-06 0 0)
(4.453119736e-06 0 0)
(6.178612879e-06 0 0)
(8.527078628e-06 0 0)
(1.170464899e-05 0 0)
(1.597829261e-05 0 0)
(2.169102278e-05 0 0)
(2.927993186e-05 0 0)
(3.92972395e-05 0 0)
(5.243442678e-05 0 0)
(6.954935902e-05 0 0)
(9.169607103e-05 0 0)
(0.0001201565958 0 0)
(0.000156473864 0 0)
(0.0002024842984 0 0)
(0.0002603482955 0 0)
(0.0003325763601 0 0)
(0.0004220482869 0 0)
(0.0005320225184 0 0)
(0.0006661327232 0 0)
(0.0008283687958 0 0)
(0.001023039925 0 0)
(0.001254718165 0 0)
(0.001528162051 0 0)
(0.001848221179 0 0)
(0.002219724279 0 0)
(0.002647354877 0 0)
(0.003135520195 0 0)
(0.003688220048 0 0)
(0.004308923195 0 0)
(0.00500045863 0 0)
(0.005764928639 0 0)
(0.006603649119 0 0)
(0.007517120789 0 0)
(0.008505032651 0 0)
(0.009566296724 0 0)
(0.01069911084 0 0)
(0.01190104446 0 0)
(0.01316914118 0 0)
(0.01450003096 0 0)
(0.01589004527 0 0)
(0.01733532877 0 0)
(0.01883194248 0 0)
(0.02037595453 0 0)
(0.02196351624 0 0)
(0.02359092249 0 0)
(0.02525465657 0 0)
(0.02695142076 0 0)
(0.0286781542 0 0)
(0.03043204026 0 0)
(0.0322105055 0 0)
(0.03401121242 0 0)
(0.03583204769 0 0)
(0.03767110764 0 0)
(0.03952668216 0 0)
(0.04139723813 0 0)
(0.04328140298 0 0)
(0.04517794902 0 0)
(0.0470857788 0 0)
(0.04900391174 0 0)
(0.0509314721 0 0)
(0.05286767847 0 0)
(0.05481183486 0 0)
(0.05676329514 0 0)
(0.05872140215 0 0)
(0.06068561763 0 0)
(0.06265557841 0 0)
(0.06463094271 0 0)
(0.0666114215 0 0)
(0.06859676513 0 0)
(0.07058671212 0 0)
(0.07258062837 0 0)
(0.074578033 0 0)
(0.07657863634 0 0)
(0.07858224723 0 0)
(0.08058870728 0 0)
(0.08259790574 0 0)
(0.08460971788 0 0)
(0.08662402034 0 0)
(0.08864069439 0 0)
(0.09065962722 0 0)
(0.09268071286 0 0)
(0.09470385208 0 0)
(0.09672895195 0 0)
(0.09875592536 0 0)
(0.1007846906 0 0)
(0.1028151707 0 0)
(0.1048472934 0 0)
(0.1068809904 0 0)
(0.108916197 0 0)
(0.1109528522 0 0)
(0.1129908979 0 0)
(0.1150302791 0 0)
(0.1170709433 0 0)
(0.1191128405 0 0)
(0.1211559228 0 0)
(0.1232001448 0 0)
(0.1252454627 0 0)
(0.1272918349 0 0)
(0.1293392221 0 0)
(0.1313875869 0 0)
(0.1334368945 0 0)
(0.1354871124 0 0)
(0.1375382106 0 0)
(0.1395901614 0 0)
(0.1416429387 0 0)
(0.143696517 0 0)
(0.14575087 0 0)
(0.1478059686 0 0)
(0.1498617822 0 0)
(0.1519182838 0 0)
(0.15397545 0 0)
(0.1560332585 0 0)
(0.1580916882 0 0)
(0.1601507189 0 0)
(0.1622103313 0 0)
(0.1642705066 0 0)
(0.1663312269 0 0)
(0.1683924751 0 0)
(0.1704542347 0 0)
(0.1725164896 0 0)
(0.1745792247 0 0)
(0.1766424252 0 0)
(0.1787060769 0 0)
(0.1807701662 0 0)
(0.18283468 0 0)
(0.1848996055 0 0)
(0.1869649308 0 0)
(0.189030644 0 0)
(0.1910967337 0 0)
(0.1931631892 0 0)
(0.19523 0 0)
(0.1972971558 0 0)
(0.1993646469 0 0)
(0.201432464 0 0)
(0.2035005979 0 0)
(0.2055690399 0 0)
(0.2076377816 0 0)
(0.2097068146 0 0)
(0.2117761313 0 0)
(0.2138457239 0 0)
(0.2159155852 0 0)
(0.217985708 0 0)
(0.2200560855 0 0)
(0.2221267111 0 0)
(0.2241975784 0 0)
(0.2262686812 0 0)
(0.2283400134 0 0)
(0.2304115695 0 0)
(0.2324833436 0 0)
(0.2345553306 0 0)
(0.2366275251 0 0)
(0.2386999221 0 0)
(0.2407725167 0 0)
(0.2428453041 0 0)
(0.2449182799 0 0)
(0.2469914395 0 0)
(0.2490647787 0 0)
(0.2511382933 0 0)
(0.2532119794 0 0)
(0.2552858329 0 0)
(0.2573598502 0 0)
(0.2594340276 0 0)
(0.2615083615 0 0)
(0.2635828485 0 0)
(0.2656574853 0 0)
(0.2677322687 0 0)
(0.2698071956 0 0)
(0.2718822629 0 0)
(0.2739574677 0 0)
(0.2760328071 0 0)
(0.2781082784 0 0)
(0.2801838789 0 0)
(0.2822596061 0 0)
(0.2843354573 0 0)
(0.2864114302 0 0)
(0.2884875224 0 0)
(0.2905637316 0 0)
(0.2926400556 0 0)
(0.2947164922 0 0)
(0.2967930393 0 0)
(0.2988696949 0 0)
(0.300946457 0 0)
(0.3030233237 0 0)
(0.3051002931 0 0)
(0.3071773635 0 0)
(0.3092545331 0 0)
(0.3113318001 0 0)
(0.3134091631 0 0)
(0.3154866202 0 0)
(0.3175641701 0 0)
(0.3196418113 0 0)
(0.3217195421 0 0)
(0.3237973614 0 0)
(0.3258752676 0 0)
(0.3279532596 0 0)
(0.3300313359 0 0)
(0.3321094954 0 0)
(0.3341877368 0 0)
(0.3362660591 0 0)
(0.338344461 0 0)
(0.3404229415 0 0)
(0.3425014996 0 0)
(0.3445801343 0 0)
(0.3466588445 0 0)
(0.3487376293 0 0)
(0.3508164878 0 0)
(0.3528954191 0 0)
(0.3549744225 0 0)
(0.357053497 0 0)
(0.359132642 0 0)
(0.3612118565 0 0)
(0.36329114 0 0)
(0.3653704918 0 0)
(0.3674499111 0 0)
(0.3695293974 0 0)
(0.37160895 0 0)
(0.3736885684 0 0)
(0.375768252 0 0)
(0.3778480002 0 0)
(0.3799278127 0 0)
(0.3820076889 0 0)
(0.3840876283 0 0)
(0.3861676306 0 0)
(0.3882476954 0 0)
(0.3903278222 0 0)
(0.3924080108 0 0)
(0.3944882608 0 0)
(0.3965685719 0 0)
(0.3986489438 0 0)
(0.4007293762 0 0)
(0.402809869 0 0)
(0.4048904218 0 0)
(0.4069710346 0 0)
(0.409051707 0 0)
(0.411132439 0 0)
(0.4132132304 0 0)
(0.4152940811 0 0)
(0.417374991 0 0)
(0.41945596 0 0)
(0.421536988 0 0)
(0.4236180749 0 0)
(0.4256992208 0 0)
(0.4277804255 0 0)
(0.4298616891 0 0)
(0.4319430116 0 0)
(0.434024393 0 0)
(0.4361058333 0 0)
(0.4381873325 0 0)
(0.4402688908 0 0)
(0.4423505081 0 0)
(0.4444321845 0 0)
(0.4465139202 0 0)
(0.4485957151 0 0)
(0.4506775695 0 0)
(0.4527594833 0 0)
(0.4548414568 0 0)
(0.45692349 0 0)
(0.459005583 0 0)
(0.461087736 0 0)
(0.4631699491 0 0)
(0.4652522225 0 0)
(0.4673345563 0 0)
(0.4694169506 0 0)
(0.4714994056 0 0)
(0.4735819214 0 0)
(0.4756644983 0 0)
(0.4777471363 0 0)
(0.4798298356 0 0)
(0.4819125965 0 0)
(0.4839954189 0 0)
(0.4860783032 0 0)
(0.4881612494 0 0)
(0.4902442577 0 0)
(0.4923273283 0 0)
(0.4944104613 0 0)
(0.4964936568 0 0)
(0.4985769149 0 0)
(0.5006602359 0 0)
(0.5027436197 0 0)
(0.5048270665 0 0)
(0.5069105764 0 0)
(0.5089941494 0 0)
(0.5110777857 0 0)
(0.5131614853 0 0)
(0.5152452483 0 0)
(0.5173290749 0 0)
(0.519412965 0 0)
(0.5214969188 0 0)
(0.5235809363 0 0)
(0.5256650178 0 0)
(0.5277491632 0 0)
(0.5298333727 0 0)
(0.5319176463 0 0)
(0.5340019843 0 0)
(0.5360863866 0 0)
(0.5381708534 0 0)
(0.5402553846 0 0)
(0.5423399804 0 0)
(0.5444246406 0 0)
(0.5465093652 0 0)
(0.548594154 0 0)
(0.5506790068 0 0)
(0.5527639231 0 0)
(0.5548489023 0 0)
(0.556933944 0 0)
(0.5590190471 0 0)
(0.5611042107 0 0)
(0.5631894335 0 0)
(0.5652747143 0 0)
(0.5673600515 0 0)
(0.5694454435 0 0)
(0.5715308887 0 0)
(0.5736163853 0 0)
(0.5757019315 0 0)
(0.5777875255 0 0)
(0.5798731653 0 0)
(0.5819588486 0 0)
(0.5840445731 0 0)
(0.5861303355 0 0)
(0.588216132 0 0)
(0.5903019573 0 0)
(0.5923878052 0 0)
(0.5944736689 0 0)
(0.5965595413 0 0)
(0.5986454162 0 0)
(0.6007312889 0 0)
(0.6028171563 0 0)
(0.604903017 0 0)
(0.6069888685 0 0)
(0.609074711 0 0)
(0.6111605449 0 0)
(0.6132463685 0 0)
(0.6153321869 0 0)
(0.6174180012 0 0)
(0.6195037988 0 0)
(0.6215895857 0 0)
(0.6236753611 0 0)
(0.6257610916 0 0)
(0.627846796 0 0)
(0.629932491 0 0)
(0.6320181192 0 0)
(0.6341037101 0 0)
(0.6361893092 0 0)
(0.6382748239 0 0)
(0.6403602453 0 0)
(0.6424456742 0 0)
(0.644531015 0 0)
(0.6466162027 0 0)
(0.6487013959 0 0)
(0.6507865715 0 0)
(0.6528715629 0 0)
(0.6549564859 0 0)
(0.657041427 0 0)
(0.6591261804 0 0)
(0.6612107622 0 0)
(0.6632953813 0 0)
(0.6653799521 0 0)
(0.6674642885 0 0)
(0.6695485441 0 0)
(0.6716328089 0 0)
(0.6737167922 0 0)
(0.6758005149 0 0)
(0.6778842962 0 0)
(0.6799680273 0 0)
(0.6820514547 0 0)
(0.6841347709 0 0)
(0.6862181114 0 0)
(0.6883011724 0 0)
(0.6903839195 0 0)
(0.69246672 0 0)
(0.694549562 0 0)
(0.6966320858 0 0)
(0.6987143421 0 0)
(0.7007965941 0 0)
(0.7028786719 0 0)
(0.7049603372 0 0)
(0.70704197 0 0)
(0.7091236962 0 0)
(0.7112051303 0 0)
(0.7132859789 0 0)
(0.7153665836 0 0)
(0.7174471906 0 0)
(0.7195273191 0 0)
(0.7216071999 0 0)
(0.7236871499 0 0)
(0.7257669771 0 0)
(0.7278460787 0 0)
(0.7299244733 0 0)
(0.7320028836 0 0)
(0.7340813232 0 0)
(0.7361594136 0 0)
(0.7382372483 0 0)
(0.7403148055 0 0)
(0.7423920719 0 0)
(0.7444684203 0 0)
(0.7465441007 0 0)
(0.7486199519 0 0)
(0.7506958964 0 0)
(0.7527717472 0 0)
(0.7548465599 0 0)
(0.7569203842 0 0)
(0.7589941734 0 0)
(0.7610670646 0 0)
(0.7631398761 0 0)
(0.7652126452 0 0)
(0.7672844976 0 0)
(0.7693559432 0 0)
(0.7714265547 0 0)
(0.7734961298 0 0)
(0.7755657793 0 0)
(0.7776352104 0 0)
(0.7797043327 0 0)
(0.7817728124 0 0)
(0.7838397284 0 0)
(0.7859058239 0 0)
(0.7879719067 0 0)
(0.7900382131 0 0)
(0.792104184 0 0)
(0.7941682247 0 0)
(0.7962317076 0 0)
(0.7982941077 0 0)
(0.8003565389 0 0)
(0.8024194859 0 0)
(0.804481545 0 0)
(0.8065413914 0 0)
(0.8086009186 0 0)
(0.8106592793 0 0)
(0.8127176846 0 0)
(0.81477673 0 0)
(0.8168346633 0 0)
(0.8188896035 0 0)
(0.8209445139 0 0)
(0.8229994038 0 0)
(0.825054334 0 0)
(0.8271089092 0 0)
(0.8291612701 0 0)
(0.8312120425 0 0)
(0.8332628701 0 0)
(0.8353138363 0 0)
(0.8373648174 0 0)
(0.8394126713 0 0)
(0.8414595852 0 0)
(0.8435069735 0 0)
(0.8455543716 0 0)
(0.8475993669 0 0)
(0.8496427108 0 0)
(0.8516865034 0 0)
(0.8537302995 0 0)
(0.8557717796 0 0)
(0.8578112686 0 0)
(0.859851207 0 0)
(0.8618909407 0 0)
(0.8639276432 0 0)
(0.8659628268 0 0)
(0.8679985697 0 0)
(0.870033053 0 0)
(0.872062985 0 0)
(0.8740925184 0 0)
(0.8761224967 0 0)
(0.8781479723 0 0)
(0.8801697236 0 0)
(0.8821908744 0 0)
(0.8842073668 0 0)
(0.8862201095 0 0)
(0.8882299413 0 0)
(0.8902348997 0 0)
(0.892235376 0 0)
(0.8942310385 0 0)
(0.8962207532 0 0)
(0.8982029548 0 0)
(0.9001759048 0 0)
(0.9021377672 0 0)
(0.9040863366 0 0)
(0.9060189568 0 0)
(0.9079320765 0 0)
(0.909821397 0 0)
(0.9116812166 0 0)
(0.9135046857 0 0)
(0.9152827264 0 0)
(0.9170044928 0 0)
(0.9186562042 0 0)
(0.9202222925 0 0)
(0.9216844895 0 0)
(0.9230242829 0 0)
(0.9242227286 0 0)
(0.9252646744 0 0)
(0.9261390693 0 0)
(0.9268437473 0 0)
(0.9273841117 0 0)
(0.9277757771 0 0)
(0.9280400214 0 0)
(0.9282033402 0 0)
(0.9282922151 0 0)
(0.9283314801 0 0)
(0.9283423444 0 0)
(0.9283402463 0 0)
(0.9283237956 0 0)
(0.9282791103 0 0)
(0.9282003177 0 0)
(0.9281147806 0 0)
(0.9280578944 0 0)
(0.9280167789 0 0)
(0.9279835349 0 0)
(0.9279552555 0 0)
(0.9279307787 0 0)
(0.9279094257 0 0)
(0.9278907513 0 0)
(0.9278744711 0 0)
(0.9278604407 0 0)
(0.9278485859 0 0)
(0.9278388451 0 0)
(0.9278310917 0 0)
(0.9278250976 0 0)
(0.9278205369 0 0)
(0.9278170267 0 0)
(0.9278141881 0 0)
(0.927811702 0 0)
(0.9278093402 0 0)
(0.9278069949 0 0)
(0.9278045864 0 0)
(0.927802132 0 0)
(0.927799908 0 0)
(0.9277979891 0 0)
(0.9277963418 0 0)
(0.9277948194 0 0)
(0.9277934116 0 0)
(0.9277920846 0 0)
(0.9277909706 0 0)
(0.9277900998 0 0)
(0.9277894582 0 0)
(0.9277892319 0 0)
(0.9277892829 0 0)
(0.9277892913 0 0)
(0.9277893078 0 0)
(0.9277893083 0 0)
(0.9277893173 0 0)
(0.9277893337 0 0)
(0.9277893666 0 0)
(0.9277894318 0 0)
(0.9277895242 0 0)
(0.9277896568 0 0)
(0.9277898506 0 0)
(0.9277900945 0 0)
(0.9277903903 0 0)
(0.9277907333 0 0)
(0.9277911075 0 0)
(0.9277914649 0 0)
(0.927791827 0 0)
(0.9277922261 0 0)
(0.9277927047 0 0)
(0.9277932526 0 0)
(0.9277938496 0 0)
(0.9277944864 0 0)
(0.9277951581 0 0)
(0.9277958707 0 0)
(0.9277966429 0 0)
(0.9277974176 0 0)
(0.9277980972 0 0)
(0.9277987185 0 0)
(0.9277992812 0 0)
(0.9277998021 0 0)
(0.9278003013 0 0)
(0.9278007916 0 0)
(0.9278012759 0 0)
(0.9278017622 0 0)
(0.9278022536 0 0)
(0.9278027682 0 0)
(0.9278033041 0 0)
(0.9278038295 0 0)
(0.9278042896 0 0)
(0.9278047164 0 0)
(0.9278051153 0 0)
(0.927805497 0 0)
(0.9278058715 0 0)
(0.927806238 0 0)
(0.9278065964 0 0)
(0.9278069384 0 0)
(0.9278072575 0 0)
(0.9278075479 0 0)
(0.9278078081 0 0)
(0.9278080385 0 0)
(0.9278082406 0 0)
(0.927808421 0 0)
(0.9278085841 0 0)
(0.9278087285 0 0)
(0.9278088515 0 0)
(0.9278089531 0 0)
(0.9278090357 0 0)
(0.9278091088 0 0)
(0.9278091792 0 0)
(0.927809255 0 0)
(0.9278093312 0 0)
(0.9278093972 0 0)
(0.9278094568 0 0)
(0.9278095033 0 0)
(0.9278095383 0 0)
(0.9278095636 0 0)
(0.9278095803 0 0)
(0.9278095883 0 0)
(0.9278095929 0 0)
(0.9278095952 0 0)
(0.9278095972 0 0)
(0.9278095944 0 0)
(0.9278095891 0 0)
(0.9278095816 0 0)
(0.9278095698 0 0)
(0.9278095495 0 0)
(0.9278095187 0 0)
(0.9278094764 0 0)
(0.9278094177 0 0)
(0.9278093544 0 0)
(0.9278094023 0 0)
(0.9278093905 0 0)
(0.927809368 0 0)
(0.9278093215 0 0)
(0.9278092566 0 0)
(0.9278093361 0 0)
(0.9278093206 0 0)
(0.9278092825 0 0)
(0.9278092655 0 0)
(0.9278092826 0 0)
(0.927809262 0 0)
(0.9278092187 0 0)
(0.927809153 0 0)
(0.9278091213 0 0)
(0.9278091992 0 0)
(0.9278091722 0 0)
(0.9278091012 0 0)
(0.9278090177 0 0)
(0.9278090797 0 0)
(0.927809073 0 0)
(0.9278090548 0 0)
(0.9278090089 0 0)
(0.9278089398 0 0)
(0.9278089979 0 0)
(0.9278089503 0 0)
(0.9278088407 0 0)
(0.9278087194 0 0)
(0.927808871 0 0)
(0.9278088252 0 0)
(0.9278087521 0 0)
(0.9278087731 0 0)
(0.9278087437 0 0)
(0.9278086863 0 0)
(0.9278085872 0 0)
(0.9278084687 0 0)
(0.9278086275 0 0)
(0.9278085846 0 0)
(0.9278084818 0 0)
(0.92780836 0 0)
(0.9278083332 0 0)
(0.9278084761 0 0)
(0.9278084504 0 0)
(0.9278083568 0 0)
(0.9278084938 0 0)
(0.9278084306 0 0)
(0.9278083235 0 0)
(0.927808334 0 0)
(0.9278083169 0 0)
(0.927808277 0 0)
(0.9278081816 0 0)
(0.9278080624 0 0)
(0.9278082761 0 0)
(0.9278082298 0 0)
(0.9278081269 0 0)
(0.9278082467 0 0)
(0.927808197 0 0)
(0.9278081155 0 0)
(0.9278081185 0 0)
(0.9278081069 0 0)
(0.9278080813 0 0)
(0.927808036 0 0)
(0.9278080962 0 0)
(0.9278080562 0 0)
(0.92780798 0 0)
(0.9278080682 0 0)
(0.9278080225 0 0)
(0.927807942 0 0)
(0.9278080355 0 0)
(0.9278079869 0 0)
(0.9278079062 0 0)
(0.9278079937 0 0)
(0.9278079548 0 0)
(0.9278078981 0 0)
(0.9278079329 0 0)
(0.9278079136 0 0)
(0.9278078865 0 0)
(0.9278078741 0 0)
(0.9278079003 0 0)
(0.927807876 0 0)
(0.9278078234 0 0)
(0.9278079235 0 0)
(0.9278078797 0 0)
(0.9278077827 0 0)
(0.9278079052 0 0)
(0.9278078517 0 0)
(0.927807755 0 0)
(0.9278078551 0 0)
(0.9278078125 0 0)
(0.927807744 0 0)
(0.9278077458 0 0)
(0.9278077623 0 0)
(0.927807754 0 0)
(0.9278077194 0 0)
(0.9278076785 0 0)
(0.9278076951 0 0)
(0.9278076917 0 0)
(0.9278076768 0 0)
(0.9278076568 0 0)
(0.9278076919 0 0)
(0.9278076745 0 0)
(0.9278076458 0 0)
(0.9278076862 0 0)
(0.9278076631 0 0)
(0.9278076223 0 0)
(0.9278076826 0 0)
(0.9278076594 0 0)
(0.9278076178 0 0)
(0.9278076108 0 0)
(0.9278076296 0 0)
(0.9278076287 0 0)
(0.9278076158 0 0)
(0.9278075928 0 0)
(0.9278075822 0 0)
(0.9278076079 0 0)
(0.9278076037 0 0)
(0.9278075875 0 0)
(0.9278075804 0 0)
(0.9278076016 0 0)
(0.9278075973 0 0)
(0.9278075964 0 0)
(0.9278075941 0 0)
(0.927807602 0 0)
(0.9278076008 0 0)
(0.9278076113 0 0)
(0.927807611 0 0)
(0.9278076216 0 0)
(0.9278076193 0 0)
(0.9278076334 0 0)
(0.9278076354 0 0)
(0.9278076478 0 0)
(0.9278076444 0 0)
(0.9278076566 0 0)
(0.927807658 0 0)
(0.9278076663 0 0)
(0.9278076655 0 0)
(0.9278076722 0 0)
(0.9278076724 0 0)
(0.9278076767 0 0)
(0.9278076772 0 0)
(0.9278076809 0 0)
(0.9278076803 0 0)
(0.9278076842 0 0)
(0.9278076807 0 0)
(0.9278076851 0 0)
(0.9278076774 0 0)
(0.927807682 0 0)
(0.9278076713 0 0)
(0.9278076759 0 0)
(0.9278076634 0 0)
(0.9278076675 0 0)
(0.927807654 0 0)
(0.9278076574 0 0)
(0.9278076435 0 0)
(0.927807646 0 0)
(0.927807632 0 0)
(0.9278076341 0 0)
(0.9278076197 0 0)
(0.9278076221 0 0)
(0.9278076066 0 0)
(0.9278076102 0 0)
(0.9278075933 0 0)
(0.9278075989 0 0)
(0.9278075811 0 0)
(0.9278075893 0 0)
(0.9278075717 0 0)
(0.9278075829 0 0)
(0.9278075673 0 0)
(0.9278075817 0 0)
(0.9278075693 0 0)
(0.927807587 0 0)
(0.9278075779 0 0)
(0.9278075986 0 0)
(0.9278075918 0 0)
(0.9278076148 0 0)
(0.9278076087 0 0)
(0.9278076334 0 0)
(0.9278076263 0 0)
(0.9278076521 0 0)
(0.927807643 0 0)
(0.9278076693 0 0)
(0.927807658 0 0)
(0.9278076841 0 0)
(0.9278076707 0 0)
(0.9278076962 0 0)
(0.9278076808 0 0)
(0.9278077054 0 0)
(0.9278076879 0 0)
(0.9278077114 0 0)
(0.9278076914 0 0)
(0.9278077134 0 0)
(0.9278076898 0 0)
(0.9278077105 0 0)
(0.9278076824 0 0)
(0.9278077028 0 0)
(0.9278076694 0 0)
(0.9278076914 0 0)
(0.927807653 0 0)
(0.9278076787 0 0)
(0.9278076363 0 0)
(0.9278076676 0 0)
(0.9278076231 0 0)
(0.9278076614 0 0)
(0.9278076176 0 0)
(0.927807664 0 0)
(0.9278076234 0 0)
(0.9278076774 0 0)
(0.9278076412 0 0)
(0.9278077004 0 0)
(0.927807667 0 0)
(0.9278077281 0 0)
(0.9278076939 0 0)
(0.9278077559 0 0)
(0.927807717 0 0)
(0.9278077824 0 0)
(0.9278077359 0 0)
(0.92780781 0 0)
(0.9278077526 0 0)
(0.927807841 0 0)
(0.9278077661 0 0)
(0.9278078776 0 0)
(0.9278077719 0 0)
(0.9278079258 0 0)
(0.927807764 0 0)
(0.9278080001 0 0)
(0.9278077345 0 0)
(0.9278081302 0 0)
(0.9278076713 0 0)
(0.9278083719 0 0)
(0.9278075533 0 0)
(0.9278088259 0 0)
(0.9278073455 0 0)
(0.9278096715 0 0)
(0.9278069917 0 0)
(0.927811208 0 0)
(0.9278063933 0 0)
(0.9278139085 0 0)
(0.9278053756 0 0)
(0.9278184962 0 0)
(0.9278036567 0 0)
(0.9278260332 0 0)
(0.9278008128 0 0)
(0.9278380055 0 0)
(0.9277962487 0 0)
(0.9278563638 0 0)
(0.9277891877 0 0)
(0.9278834467 0 0)
(0.9277786923 0 0)
(0.9279217037 0 0)
(0.9277637688 0 0)
(0.9279731469 0 0)
(0.9277436205 0 0)
(0.9280385012 0 0)
(0.9277180893 0 0)
(0.9281161479 0 0)
(0.9276882941 0 0)
(0.9282012606 0 0)
(0.9276574867 0 0)
(0.9282857276 0 0)
(0.9276319388 0 0)
(0.9283594423 0 0)
(0.9276214681 0 0)
(0.928413133 0 0)
(0.9276390244 0 0)
(0.9284418521 0 0)
(0.9276985999 0 0)
(0.9284472604 0 0)
(0.9278112359 0 0)
(0.9284341451 0 0)
(0.9279829725 0 0)
(0.9283945947 0 0)
(0.9282165505 0 0)
(0.9283676167 0 0)
(0.928241766 0 0)
(0.9278121858 0 0)
(0.9276278811 0 0)
(0.9276679198 0 0)
(0.9277152864 0 0)
(0.9277464913 0 0)
(0.9277703135 0 0)
(0.9277882229 0 0)
(0.9278013508 0 0)
(0.9278107723 0 0)
(0.9278174119 0 0)
(0.9278219976 0 0)
(0.9278251083 0 0)
(0.9278271924 0 0)
(0.9278285573 0 0)
(0.9278294354 0 0)
(0.9278299931 0 0)
(0.9278303483 0 0)
(0.9278305759 0 0)
(0.9278307279 0 0)
(0.9278308346 0 0)
(0.9278309195 0 0)
(0.9278309951 0 0)
(0.9278310691 0 0)
(0.9278311439 0 0)
(0.9278312129 0 0)
(0.9278312786 0 0)
(0.9278313282 0 0)
(0.9278313631 0 0)
(0.9278313881 0 0)
(0.9278314129 0 0)
(0.927831439 0 0)
(0.9278314673 0 0)
(0.9278314984 0 0)
(0.9278315311 0 0)
(0.927831562 0 0)
(0.9278315793 0 0)
(0.9278315821 0 0)
(0.9278315801 0 0)
(0.9278315766 0 0)
(0.9278315733 0 0)
(0.927831572 0 0)
(0.9278315714 0 0)
(0.9278315708 0 0)
(0.9278315695 0 0)
(0.927831567 0 0)
(0.9278315642 0 0)
(0.9278315646 0 0)
(0.9278315693 0 0)
(0.9278315815 0 0)
(0.9278316039 0 0)
(0.9278316383 0 0)
(0.9278316844 0 0)
(0.9278317393 0 0)
(0.927831804 0 0)
(0.9278318784 0 0)
(0.9278319557 0 0)
(0.9278320161 0 0)
(0.9278320679 0 0)
(0.9278320952 0 0)
(0.9278321018 0 0)
(0.9278321063 0 0)
(0.9278321179 0 0)
(0.9278321412 0 0)
(0.9278321772 0 0)
(0.9278322223 0 0)
(0.9278322709 0 0)
(0.9278323037 0 0)
(0.9278323105 0 0)
(0.9278323105 0 0)
(0.9278323143 0 0)
(0.9278323228 0 0)